<?xml version="1.0" encoding="UTF-8"?>

<!-- generated on 2026-07-02 15:31:28 by Eclipse SUMO sumo Version 1.24.0
<sumoConfiguration xmlns:xsi="http://www.w3.org/2001/XMLSchema-instance" xsi:noNamespaceSchemaLocation="http://sumo.dlr.de/xsd/sumoConfiguration.xsd">

    <input>
        <net-file value="C:\Users\24924\Desktop\智能运输系统设计与集成综合实验\algorithm\sumo\city_network.net.xml"/>
        <route-files value="C:\Users\24924\Desktop\智能运输系统设计与集成综合实验\algorithm\sumo\city_flows.rou.xml"/>
        <additional-files value="C:\Users\24924\Desktop\智能运输系统设计与集成综合实验\algorithm\sumo\detectors.add.xml"/>
    </input>

    <output>
        <tripinfo-output value="C:\Users\24924\Desktop\智能运输系统设计与集成综合实验\algorithm\sumo\../data/raw/tripinfo.xml"/>
    </output>

    <time>
        <begin value="0"/>
        <end value="21600"/>
        <step-length value="0.1"/>
    </time>

    <processing>
        <eager-insert value="true"/>
    </processing>

</sumoConfiguration>
-->

<tripinfos xmlns:xsi="http://www.w3.org/2001/XMLSchema-instance" xsi:noNamespaceSchemaLocation="http://sumo.dlr.de/xsd/tripinfo_file.xsd">
    <tripinfo id="am_ns.0" depart="0.00" departLane="bottom0A0_0" departPos="5.10" departSpeed="0.00" departDelay="0.00" arrival="71.40" arrivalLane="bottom1B0_2" arrivalPos="186.40" arrivalSpeed="11.79" duration="71.40" routeLength="849.63" waitingTime="0.00" waitingCount="0" stopTime="0.00" timeLoss="11.34" rerouteNo="1" devices="tripinfo_am_ns.0 routing_am_ns.0" vType="passenger" speedFactor="1.06" vaporized=""/>
    <tripinfo id="am_sn.0" depart="0.00" departLane="bottom1B0_0" departPos="5.10" departSpeed="0.00" departDelay="0.00" arrival="77.70" arrivalLane="bottom0A0_2" arrivalPos="186.40" arrivalSpeed="12.95" duration="77.70" routeLength="880.59" waitingTime="0.00" waitingCount="0" stopTime="0.00" timeLoss="7.83" rerouteNo="1" devices="tripinfo_am_sn.0 routing_am_sn.0" vType="passenger" speedFactor="0.94" vaporized=""/>
    <tripinfo id="am_ns.1" depart="3.00" departLane="bottom0A0_0" departPos="5.10" departSpeed="0.00" departDelay="0.00" arrival="78.20" arrivalLane="bottom1B0_2" arrivalPos="186.40" arrivalSpeed="10.41" duration="75.20" routeLength="849.63" waitingTime="0.00" waitingCount="0" stopTime="0.00" timeLoss="12.27" rerouteNo="1" devices="tripinfo_am_ns.1 routing_am_ns.1" vType="passenger" speedFactor="1.01" vaporized=""/>
    <tripinfo id="am_sn.1" depart="3.30" departLane="bottom1B0_0" departPos="5.10" departSpeed="0.00" departDelay="0.03" arrival="79.20" arrivalLane="bottom0A0_2" arrivalPos="186.40" arrivalSpeed="15.02" duration="75.90" routeLength="880.59" waitingTime="0.00" waitingCount="0" stopTime="0.00" timeLoss="15.35" rerouteNo="1" devices="tripinfo_am_sn.1 routing_am_sn.1" vType="passenger" speedFactor="1.08" vaporized=""/>
    <tripinfo id="am_ns.2" depart="6.00" departLane="bottom0A0_0" departPos="5.10" departSpeed="0.00" departDelay="0.00" arrival="82.30" arrivalLane="bottom1B0_2" arrivalPos="186.40" arrivalSpeed="10.39" duration="76.30" routeLength="849.63" waitingTime="0.00" waitingCount="0" stopTime="0.00" timeLoss="14.55" rerouteNo="1" devices="tripinfo_am_ns.2 routing_am_ns.2" vType="passenger" speedFactor="1.03" vaporized=""/>
    <tripinfo id="am_ns.3" depart="9.00" departLane="bottom0A0_0" departPos="5.10" departSpeed="0.00" departDelay="0.00" arrival="88.50" arrivalLane="bottom1B0_2" arrivalPos="186.40" arrivalSpeed="10.35" duration="79.50" routeLength="849.63" waitingTime="0.30" waitingCount="1" stopTime="0.00" timeLoss="18.69" rerouteNo="1" devices="tripinfo_am_ns.3 routing_am_ns.3" vType="passenger" speedFactor="1.05" vaporized=""/>
    <tripinfo id="am_sn.2" depart="6.60" departLane="bottom1B0_0" departPos="5.10" departSpeed="0.00" departDelay="0.06" arrival="92.20" arrivalLane="bottom0A0_2" arrivalPos="186.40" arrivalSpeed="11.47" duration="85.60" routeLength="880.59" waitingTime="0.00" waitingCount="0" stopTime="0.00" timeLoss="6.73" rerouteNo="1" devices="tripinfo_am_sn.2 routing_am_sn.2" vType="passenger" speedFactor="0.83" vaporized=""/>
    <tripinfo id="am_sn.3" depart="9.90" departLane="bottom1B0_0" departPos="5.10" departSpeed="0.00" departDelay="0.08" arrival="94.50" arrivalLane="bottom0A0_2" arrivalPos="186.40" arrivalSpeed="12.30" duration="84.60" routeLength="880.59" waitingTime="0.00" waitingCount="0" stopTime="0.00" timeLoss="10.66" rerouteNo="1" devices="tripinfo_am_sn.3 routing_am_sn.3" vType="passenger" speedFactor="0.89" vaporized=""/>
    <tripinfo id="am_ns.4" depart="12.00" departLane="bottom0A0_0" departPos="5.10" departSpeed="0.00" departDelay="0.00" arrival="95.90" arrivalLane="bottom1B0_2" arrivalPos="186.40" arrivalSpeed="10.71" duration="83.90" routeLength="849.63" waitingTime="0.30" waitingCount="1" stopTime="0.00" timeLoss="16.11" rerouteNo="1" devices="tripinfo_am_ns.4 routing_am_ns.4" vType="passenger" speedFactor="0.94" vaporized=""/>
    <tripinfo id="am_sn.4" depart="13.10" departLane="bottom1B0_0" departPos="5.10" departSpeed="0.00" departDelay="0.01" arrival="98.60" arrivalLane="bottom0A0_2" arrivalPos="186.40" arrivalSpeed="11.82" duration="85.50" routeLength="880.59" waitingTime="0.00" waitingCount="0" stopTime="0.00" timeLoss="8.88" rerouteNo="1" devices="tripinfo_am_sn.4 routing_am_sn.4" vType="passenger" speedFactor="0.86" vaporized=""/>
    <tripinfo id="am_sn.5" depart="16.40" departLane="bottom1B0_0" departPos="5.10" departSpeed="0.00" departDelay="0.04" arrival="100.10" arrivalLane="bottom0A0_2" arrivalPos="186.40" arrivalSpeed="14.16" duration="83.70" routeLength="880.59" waitingTime="0.00" waitingCount="0" stopTime="0.00" timeLoss="19.83" rerouteNo="1" devices="tripinfo_am_sn.5 routing_am_sn.5" vType="passenger" speedFactor="1.03" vaporized=""/>
    <tripinfo id="am_sn.6" depart="19.70" departLane="bottom1B0_0" departPos="5.10" departSpeed="0.00" departDelay="0.07" arrival="101.60" arrivalLane="bottom0A0_2" arrivalPos="186.40" arrivalSpeed="15.50" duration="81.90" routeLength="880.59" waitingTime="0.00" waitingCount="0" stopTime="0.00" timeLoss="23.43" rerouteNo="1" devices="tripinfo_am_sn.6 routing_am_sn.6" vType="passenger" speedFactor="1.12" vaporized=""/>
    <tripinfo id="am_ns.5" depart="15.00" departLane="bottom0A0_0" departPos="5.10" departSpeed="0.00" departDelay="0.00" arrival="101.80" arrivalLane="bottom1B0_1" arrivalPos="186.40" arrivalSpeed="11.14" duration="86.80" routeLength="849.63" waitingTime="1.60" waitingCount="2" stopTime="0.00" timeLoss="28.52" rerouteNo="1" devices="tripinfo_am_ns.5 routing_am_ns.5" vType="passenger" speedFactor="1.09" vaporized=""/>
    <tripinfo id="am_sn.7" depart="23.00" departLane="bottom1B0_0" departPos="5.10" departSpeed="0.00" departDelay="0.10" arrival="106.20" arrivalLane="bottom0A0_2" arrivalPos="186.40" arrivalSpeed="12.76" duration="83.20" routeLength="880.59" waitingTime="0.00" waitingCount="0" stopTime="0.00" timeLoss="12.46" rerouteNo="1" devices="tripinfo_am_sn.7 routing_am_sn.7" vType="passenger" speedFactor="0.93" vaporized=""/>
    <tripinfo id="am_ns.6" depart="18.00" departLane="bottom0A0_0" departPos="5.10" departSpeed="0.00" departDelay="0.00" arrival="108.10" arrivalLane="bottom1B0_2" arrivalPos="186.40" arrivalSpeed="10.25" duration="90.10" routeLength="849.63" waitingTime="1.50" waitingCount="2" stopTime="0.00" timeLoss="29.30" rerouteNo="1" devices="tripinfo_am_ns.6 routing_am_ns.6" vType="passenger" speedFactor="1.05" vaporized=""/>
    <tripinfo id="am_sn.8" depart="26.20" departLane="bottom1B0_0" departPos="5.10" departSpeed="0.00" departDelay="0.02" arrival="108.90" arrivalLane="bottom0A0_2" arrivalPos="186.40" arrivalSpeed="13.07" duration="82.70" routeLength="880.59" waitingTime="0.00" waitingCount="0" stopTime="0.00" timeLoss="13.08" rerouteNo="1" devices="tripinfo_am_sn.8 routing_am_sn.8" vType="passenger" speedFactor="0.94" vaporized=""/>
    <tripinfo id="am_sn.9" depart="29.50" departLane="bottom1B0_0" departPos="5.10" departSpeed="0.00" departDelay="0.05" arrival="110.40" arrivalLane="bottom0A0_2" arrivalPos="186.40" arrivalSpeed="15.99" duration="80.90" routeLength="880.59" waitingTime="0.00" waitingCount="0" stopTime="0.00" timeLoss="24.30" rerouteNo="1" devices="tripinfo_am_sn.9 routing_am_sn.9" vType="passenger" speedFactor="1.16" vaporized=""/>
    <tripinfo id="am_sn.10" depart="32.80" departLane="bottom1B0_0" departPos="5.10" departSpeed="0.00" departDelay="0.08" arrival="113.60" arrivalLane="bottom0A0_2" arrivalPos="186.40" arrivalSpeed="13.98" duration="80.80" routeLength="880.59" waitingTime="0.00" waitingCount="0" stopTime="0.00" timeLoss="15.98" rerouteNo="1" devices="tripinfo_am_sn.10 routing_am_sn.10" vType="passenger" speedFactor="1.01" vaporized=""/>
    <tripinfo id="am_ns.7" depart="21.00" departLane="bottom0A0_0" departPos="5.10" departSpeed="0.00" departDelay="0.00" arrival="114.50" arrivalLane="bottom1B0_2" arrivalPos="186.40" arrivalSpeed="11.17" duration="93.50" routeLength="849.63" waitingTime="1.20" waitingCount="2" stopTime="0.00" timeLoss="29.23" rerouteNo="1" devices="tripinfo_am_ns.7 routing_am_ns.7" vType="passenger" speedFactor="0.99" vaporized=""/>
    <tripinfo id="am_ns.8" depart="24.00" departLane="bottom0A0_0" departPos="5.10" departSpeed="0.00" departDelay="0.00" arrival="121.80" arrivalLane="bottom1B0_2" arrivalPos="186.40" arrivalSpeed="10.59" duration="97.80" routeLength="849.63" waitingTime="1.00" waitingCount="2" stopTime="0.00" timeLoss="25.40" rerouteNo="1" devices="tripinfo_am_ns.8 routing_am_ns.8" vType="passenger" speedFactor="0.88" vaporized=""/>
    <tripinfo id="am_sn.11" depart="36.00" departLane="bottom1B0_0" departPos="5.10" departSpeed="0.00" departDelay="0.01" arrival="122.30" arrivalLane="bottom0A0_2" arrivalPos="186.40" arrivalSpeed="11.45" duration="86.30" routeLength="880.59" waitingTime="0.00" waitingCount="0" stopTime="0.00" timeLoss="6.89" rerouteNo="1" devices="tripinfo_am_sn.11 routing_am_sn.11" vType="passenger" speedFactor="0.83" vaporized=""/>
    <tripinfo id="am_sn.12" depart="39.30" departLane="bottom1B0_0" departPos="5.10" departSpeed="0.00" departDelay="0.04" arrival="124.10" arrivalLane="bottom0A0_2" arrivalPos="186.40" arrivalSpeed="12.72" duration="84.80" routeLength="880.59" waitingTime="0.00" waitingCount="0" stopTime="0.00" timeLoss="13.29" rerouteNo="1" devices="tripinfo_am_sn.12 routing_am_sn.12" vType="passenger" speedFactor="0.92" vaporized=""/>
    <tripinfo id="am_sn.13" depart="42.60" departLane="bottom1B0_0" departPos="5.10" departSpeed="0.00" departDelay="0.06" arrival="125.60" arrivalLane="bottom0A0_2" arrivalPos="186.40" arrivalSpeed="15.69" duration="83.00" routeLength="880.59" waitingTime="0.00" waitingCount="0" stopTime="0.00" timeLoss="25.00" rerouteNo="1" devices="tripinfo_am_sn.13 routing_am_sn.13" vType="passenger" speedFactor="1.13" vaporized=""/>
    <tripinfo id="am_sn.14" depart="45.90" departLane="bottom1B0_0" departPos="5.10" departSpeed="0.00" departDelay="0.09" arrival="127.10" arrivalLane="bottom0A0_2" arrivalPos="186.40" arrivalSpeed="16.36" duration="81.20" routeLength="880.59" waitingTime="0.00" waitingCount="0" stopTime="0.00" timeLoss="25.54" rerouteNo="1" devices="tripinfo_am_sn.14 routing_am_sn.14" vType="passenger" speedFactor="1.18" vaporized=""/>
    <tripinfo id="am_ns.9" depart="27.00" departLane="bottom0A0_0" departPos="5.10" departSpeed="0.00" departDelay="0.00" arrival="128.10" arrivalLane="bottom1B0_2" arrivalPos="186.40" arrivalSpeed="10.52" duration="101.10" routeLength="849.63" waitingTime="1.60" waitingCount="2" stopTime="0.00" timeLoss="33.18" rerouteNo="1" devices="tripinfo_am_ns.9 routing_am_ns.9" vType="passenger" speedFactor="0.94" vaporized=""/>
    <tripinfo id="am_sn.15" depart="49.10" departLane="bottom1B0_0" departPos="5.10" departSpeed="0.00" departDelay="0.02" arrival="131.20" arrivalLane="bottom0A0_2" arrivalPos="186.40" arrivalSpeed="13.90" duration="82.10" routeLength="880.59" waitingTime="0.00" waitingCount="0" stopTime="0.00" timeLoss="16.91" rerouteNo="1" devices="tripinfo_am_sn.15 routing_am_sn.15" vType="passenger" speedFactor="1.01" vaporized=""/>
    <tripinfo id="am_sn.16" depart="52.40" departLane="bottom1B0_0" departPos="5.10" departSpeed="0.00" departDelay="0.05" arrival="134.30" arrivalLane="bottom0A0_2" arrivalPos="186.40" arrivalSpeed="13.74" duration="81.90" routeLength="880.59" waitingTime="0.00" waitingCount="0" stopTime="0.00" timeLoss="15.96" rerouteNo="1" devices="tripinfo_am_sn.16 routing_am_sn.16" vType="passenger" speedFactor="0.99" vaporized=""/>
    <tripinfo id="am_ns.10" depart="30.00" departLane="bottom0A0_0" departPos="5.10" departSpeed="0.00" departDelay="0.00" arrival="134.40" arrivalLane="bottom1B0_1" arrivalPos="186.40" arrivalSpeed="10.74" duration="104.40" routeLength="849.63" waitingTime="1.10" waitingCount="2" stopTime="0.00" timeLoss="42.04" rerouteNo="1" devices="tripinfo_am_ns.10 routing_am_ns.10" vType="passenger" speedFactor="1.02" vaporized=""/>
    <tripinfo id="am_sn.17" depart="55.70" departLane="bottom1B0_0" departPos="5.10" departSpeed="0.00" departDelay="0.08" arrival="137.50" arrivalLane="bottom0A0_2" arrivalPos="186.40" arrivalSpeed="13.40" duration="81.80" routeLength="880.59" waitingTime="0.00" waitingCount="0" stopTime="0.00" timeLoss="14.40" rerouteNo="1" devices="tripinfo_am_sn.17 routing_am_sn.17" vType="passenger" speedFactor="0.97" vaporized=""/>
    <tripinfo id="am_sn.18" depart="58.90" departLane="bottom1B0_0" departPos="5.10" departSpeed="0.00" departDelay="0.00" arrival="139.00" arrivalLane="bottom0A0_2" arrivalPos="186.40" arrivalSpeed="15.18" duration="80.10" routeLength="880.59" waitingTime="0.00" waitingCount="0" stopTime="0.00" timeLoss="20.63" rerouteNo="1" devices="tripinfo_am_sn.18 routing_am_sn.18" vType="passenger" speedFactor="1.10" vaporized=""/>
    <tripinfo id="am_ns.11" depart="33.00" departLane="bottom0A0_0" departPos="5.10" departSpeed="0.00" departDelay="0.00" arrival="140.70" arrivalLane="bottom1B0_2" arrivalPos="186.40" arrivalSpeed="11.16" duration="107.70" routeLength="849.63" waitingTime="1.20" waitingCount="2" stopTime="0.00" timeLoss="42.44" rerouteNo="1" devices="tripinfo_am_ns.11 routing_am_ns.11" vType="passenger" speedFactor="0.97" vaporized=""/>
    <tripinfo id="am_sn.19" depart="62.20" departLane="bottom1B0_0" departPos="5.10" departSpeed="0.00" departDelay="0.03" arrival="142.40" arrivalLane="bottom0A0_2" arrivalPos="186.40" arrivalSpeed="14.23" duration="80.20" routeLength="880.59" waitingTime="0.00" waitingCount="0" stopTime="0.00" timeLoss="16.56" rerouteNo="1" devices="tripinfo_am_sn.19 routing_am_sn.19" vType="passenger" speedFactor="1.03" vaporized=""/>
    <tripinfo id="am_sn.20" depart="65.50" departLane="bottom1B0_0" departPos="5.10" departSpeed="0.00" departDelay="0.06" arrival="144.60" arrivalLane="bottom0A0_2" arrivalPos="186.40" arrivalSpeed="15.10" duration="79.10" routeLength="880.59" waitingTime="0.10" waitingCount="1" stopTime="0.00" timeLoss="19.01" rerouteNo="1" devices="tripinfo_am_sn.20 routing_am_sn.20" vType="passenger" speedFactor="1.09" vaporized=""/>
    <tripinfo id="am_ns.12" depart="36.00" departLane="bottom0A0_0" departPos="5.10" departSpeed="0.00" departDelay="0.00" arrival="147.40" arrivalLane="bottom1B0_2" arrivalPos="186.40" arrivalSpeed="11.66" duration="111.40" routeLength="849.63" waitingTime="1.20" waitingCount="2" stopTime="0.00" timeLoss="39.88" rerouteNo="1" devices="tripinfo_am_ns.12 routing_am_ns.12" vType="passenger" speedFactor="0.89" vaporized=""/>
    <tripinfo id="am_sn.21" depart="68.80" departLane="bottom1B0_0" departPos="5.10" departSpeed="0.00" departDelay="0.09" arrival="147.90" arrivalLane="bottom0A0_2" arrivalPos="186.40" arrivalSpeed="14.42" duration="79.10" routeLength="880.59" waitingTime="0.00" waitingCount="0" stopTime="0.00" timeLoss="16.27" rerouteNo="1" devices="tripinfo_am_sn.21 routing_am_sn.21" vType="passenger" speedFactor="1.04" vaporized=""/>
    <tripinfo id="am_sn.22" depart="72.00" departLane="bottom1B0_0" departPos="5.10" departSpeed="0.00" departDelay="0.02" arrival="153.80" arrivalLane="bottom0A0_2" arrivalPos="186.40" arrivalSpeed="12.39" duration="81.80" routeLength="880.59" waitingTime="0.30" waitingCount="1" stopTime="0.00" timeLoss="8.89" rerouteNo="1" devices="tripinfo_am_sn.22 routing_am_sn.22" vType="passenger" speedFactor="0.90" vaporized=""/>
    <tripinfo id="am_ns.13" depart="39.00" departLane="bottom0A0_0" departPos="5.10" departSpeed="0.00" departDelay="0.00" arrival="153.90" arrivalLane="bottom1B0_2" arrivalPos="186.40" arrivalSpeed="12.08" duration="114.90" routeLength="849.63" waitingTime="1.10" waitingCount="2" stopTime="0.00" timeLoss="42.08" rerouteNo="1" devices="tripinfo_am_ns.13 routing_am_ns.13" vType="passenger" speedFactor="0.87" vaporized=""/>
    <tripinfo id="am_sn.23" depart="75.30" departLane="bottom1B0_0" departPos="5.10" departSpeed="0.00" departDelay="0.04" arrival="159.50" arrivalLane="bottom0A0_2" arrivalPos="186.40" arrivalSpeed="11.68" duration="84.20" routeLength="880.59" waitingTime="0.00" waitingCount="0" stopTime="0.00" timeLoss="7.12" rerouteNo="1" devices="tripinfo_am_sn.23 routing_am_sn.23" vType="passenger" speedFactor="0.85" vaporized=""/>
    <tripinfo id="am_ns.14" depart="42.00" departLane="bottom0A0_0" departPos="5.10" departSpeed="0.00" departDelay="0.00" arrival="160.40" arrivalLane="bottom1B0_2" arrivalPos="186.40" arrivalSpeed="9.78" duration="118.40" routeLength="849.63" waitingTime="1.30" waitingCount="2" stopTime="0.00" timeLoss="51.36" rerouteNo="1" devices="tripinfo_am_ns.14 routing_am_ns.14" vType="passenger" speedFactor="0.95" vaporized=""/>
    <tripinfo id="am_sn.24" depart="78.60" departLane="bottom1B0_0" departPos="5.10" departSpeed="0.00" departDelay="0.07" arrival="161.00" arrivalLane="bottom0A0_2" arrivalPos="186.40" arrivalSpeed="15.08" duration="82.40" routeLength="880.59" waitingTime="0.10" waitingCount="1" stopTime="0.00" timeLoss="26.30" rerouteNo="1" devices="tripinfo_am_sn.24 routing_am_sn.24" vType="passenger" speedFactor="1.17" vaporized=""/>
    <tripinfo id="am_sn.25" depart="81.80" departLane="bottom1B0_0" departPos="5.10" departSpeed="0.00" departDelay="0.00" arrival="162.50" arrivalLane="bottom0A0_2" arrivalPos="186.40" arrivalSpeed="15.19" duration="80.70" routeLength="880.59" waitingTime="0.00" waitingCount="0" stopTime="0.00" timeLoss="20.97" rerouteNo="1" devices="tripinfo_am_sn.25 routing_am_sn.25" vType="passenger" speedFactor="1.10" vaporized=""/>
    <tripinfo id="am_sn.26" depart="85.10" departLane="bottom1B0_0" departPos="5.10" departSpeed="0.00" departDelay="0.03" arrival="166.20" arrivalLane="bottom0A0_2" arrivalPos="186.40" arrivalSpeed="13.83" duration="81.10" routeLength="880.59" waitingTime="0.30" waitingCount="1" stopTime="0.00" timeLoss="15.27" rerouteNo="1" devices="tripinfo_am_sn.26 routing_am_sn.26" vType="passenger" speedFactor="1.00" vaporized=""/>
    <tripinfo id="am_ns.15" depart="45.00" departLane="bottom0A0_0" departPos="5.10" departSpeed="0.00" departDelay="0.00" arrival="166.90" arrivalLane="bottom1B0_2" arrivalPos="186.40" arrivalSpeed="11.71" duration="121.90" routeLength="849.63" waitingTime="1.20" waitingCount="2" stopTime="0.00" timeLoss="53.56" rerouteNo="1" devices="tripinfo_am_ns.15 routing_am_ns.15" vType="passenger" speedFactor="0.93" vaporized=""/>
    <tripinfo id="am_sn.27" depart="88.40" departLane="bottom1B0_0" departPos="5.10" departSpeed="0.00" departDelay="0.06" arrival="167.70" arrivalLane="bottom0A0_2" arrivalPos="186.40" arrivalSpeed="15.81" duration="79.30" routeLength="880.59" waitingTime="0.00" waitingCount="0" stopTime="0.00" timeLoss="21.96" rerouteNo="1" devices="tripinfo_am_sn.27 routing_am_sn.27" vType="passenger" speedFactor="1.14" vaporized=""/>
    <tripinfo id="am_sn.28" depart="91.70" departLane="bottom1B0_0" departPos="5.10" departSpeed="0.00" departDelay="0.08" arrival="172.20" arrivalLane="bottom0A0_2" arrivalPos="186.40" arrivalSpeed="13.42" duration="80.50" routeLength="880.59" waitingTime="0.30" waitingCount="1" stopTime="0.00" timeLoss="12.94" rerouteNo="1" devices="tripinfo_am_sn.28 routing_am_sn.28" vType="passenger" speedFactor="0.97" vaporized=""/>
    <tripinfo id="am_ns.16" depart="48.00" departLane="bottom0A0_0" departPos="5.10" departSpeed="0.00" departDelay="0.00" arrival="172.90" arrivalLane="bottom1B0_1" arrivalPos="186.40" arrivalSpeed="13.02" duration="124.90" routeLength="849.63" waitingTime="1.30" waitingCount="2" stopTime="0.00" timeLoss="69.86" rerouteNo="1" devices="tripinfo_am_ns.16 routing_am_ns.16" vType="passenger" speedFactor="1.15" vaporized=""/>
    <tripinfo id="am_sn.29" depart="94.90" departLane="bottom1B0_0" departPos="5.10" departSpeed="0.00" departDelay="0.01" arrival="173.80" arrivalLane="bottom0A0_2" arrivalPos="186.40" arrivalSpeed="15.51" duration="78.90" routeLength="880.59" waitingTime="0.00" waitingCount="0" stopTime="0.00" timeLoss="20.28" rerouteNo="1" devices="tripinfo_am_sn.29 routing_am_sn.29" vType="passenger" speedFactor="1.12" vaporized=""/>
    <tripinfo id="am_sn.30" depart="98.20" departLane="bottom1B0_0" departPos="5.10" departSpeed="0.00" departDelay="0.04" arrival="177.70" arrivalLane="bottom0A0_2" arrivalPos="186.40" arrivalSpeed="13.67" duration="79.50" routeLength="880.59" waitingTime="0.30" waitingCount="1" stopTime="0.00" timeLoss="13.11" rerouteNo="1" devices="tripinfo_am_sn.30 routing_am_sn.30" vType="passenger" speedFactor="0.99" vaporized=""/>
    <tripinfo id="am_ns.17" depart="51.00" departLane="bottom0A0_0" departPos="5.10" departSpeed="0.00" departDelay="0.00" arrival="179.60" arrivalLane="bottom1B0_1" arrivalPos="186.40" arrivalSpeed="12.78" duration="128.60" routeLength="849.63" waitingTime="1.10" waitingCount="2" stopTime="0.00" timeLoss="74.45" rerouteNo="1" devices="tripinfo_am_ns.17 routing_am_ns.17" vType="passenger" speedFactor="1.17" vaporized=""/>
    <tripinfo id="am_sn.31" depart="101.50" departLane="bottom1B0_0" departPos="5.10" departSpeed="0.00" departDelay="0.07" arrival="183.60" arrivalLane="bottom0A0_2" arrivalPos="186.40" arrivalSpeed="12.13" duration="82.10" routeLength="880.59" waitingTime="0.00" waitingCount="0" stopTime="0.00" timeLoss="7.88" rerouteNo="1" devices="tripinfo_am_sn.31 routing_am_sn.31" vType="passenger" speedFactor="0.88" vaporized=""/>
    <tripinfo id="am_ns.18" depart="54.00" departLane="bottom0A0_0" departPos="5.10" departSpeed="0.00" departDelay="0.00" arrival="186.00" arrivalLane="bottom1B0_2" arrivalPos="186.40" arrivalSpeed="11.13" duration="132.00" routeLength="849.63" waitingTime="1.20" waitingCount="2" stopTime="0.00" timeLoss="69.72" rerouteNo="1" devices="tripinfo_am_ns.18 routing_am_ns.18" vType="passenger" speedFactor="1.02" vaporized=""/>
    <tripinfo id="am_sn.32" depart="104.80" departLane="bottom1B0_0" departPos="5.10" departSpeed="0.00" departDelay="0.10" arrival="186.70" arrivalLane="bottom0A0_2" arrivalPos="186.40" arrivalSpeed="12.68" duration="81.90" routeLength="880.59" waitingTime="0.20" waitingCount="1" stopTime="0.00" timeLoss="10.14" rerouteNo="1" devices="tripinfo_am_sn.32 routing_am_sn.32" vType="passenger" speedFactor="0.91" vaporized=""/>
    <tripinfo id="am_sn.33" depart="108.00" departLane="bottom1B0_0" departPos="5.10" departSpeed="0.00" departDelay="0.02" arrival="188.40" arrivalLane="bottom0A0_2" arrivalPos="186.40" arrivalSpeed="14.17" duration="80.40" routeLength="880.59" waitingTime="0.00" waitingCount="0" stopTime="0.00" timeLoss="16.28" rerouteNo="1" devices="tripinfo_am_sn.33 routing_am_sn.33" vType="passenger" speedFactor="1.02" vaporized=""/>
    <tripinfo id="am_sn.34" depart="111.30" departLane="bottom1B0_0" departPos="5.10" departSpeed="0.00" departDelay="0.05" arrival="192.70" arrivalLane="bottom0A0_2" arrivalPos="186.40" arrivalSpeed="13.04" duration="81.40" routeLength="880.59" waitingTime="0.40" waitingCount="1" stopTime="0.00" timeLoss="11.60" rerouteNo="1" devices="tripinfo_am_sn.34 routing_am_sn.34" vType="passenger" speedFactor="0.94" vaporized=""/>
    <tripinfo id="am_ns.19" depart="57.00" departLane="bottom0A0_0" departPos="5.10" departSpeed="0.00" departDelay="0.00" arrival="193.30" arrivalLane="bottom1B0_1" arrivalPos="186.40" arrivalSpeed="12.78" duration="136.30" routeLength="849.63" waitingTime="1.20" waitingCount="2" stopTime="0.00" timeLoss="82.43" rerouteNo="1" devices="tripinfo_am_ns.19 routing_am_ns.19" vType="passenger" speedFactor="1.18" vaporized=""/>
    <tripinfo id="am_sn.35" depart="114.60" departLane="bottom1B0_0" departPos="5.10" departSpeed="0.00" departDelay="0.08" arrival="195.50" arrivalLane="bottom0A0_2" arrivalPos="186.40" arrivalSpeed="13.15" duration="80.90" routeLength="880.59" waitingTime="0.00" waitingCount="0" stopTime="0.00" timeLoss="12.21" rerouteNo="1" devices="tripinfo_am_sn.35 routing_am_sn.35" vType="passenger" speedFactor="0.96" vaporized=""/>
    <tripinfo id="am_sn.36" depart="117.80" departLane="bottom1B0_0" departPos="5.10" departSpeed="0.00" departDelay="0.01" arrival="197.50" arrivalLane="bottom0A0_2" arrivalPos="186.40" arrivalSpeed="14.27" duration="79.70" routeLength="880.59" waitingTime="0.30" waitingCount="1" stopTime="0.00" timeLoss="16.24" rerouteNo="1" devices="tripinfo_am_sn.36 routing_am_sn.36" vType="passenger" speedFactor="1.03" vaporized=""/>
    <tripinfo id="am_ns.36" depart="108.00" departLane="bottom0A0_0" departPos="5.10" departSpeed="0.00" departDelay="0.00" arrival="199.40" arrivalLane="bottom1B0_2" arrivalPos="186.40" arrivalSpeed="11.06" duration="91.40" routeLength="849.63" waitingTime="7.40" waitingCount="3" stopTime="0.00" timeLoss="29.21" rerouteNo="1" devices="tripinfo_am_ns.36 routing_am_ns.36" vType="passenger" speedFactor="1.02" vaporized=""/>
    <tripinfo id="am_sn.37" depart="121.10" departLane="bottom1B0_0" departPos="5.10" departSpeed="0.00" departDelay="0.04" arrival="200.60" arrivalLane="bottom0A0_2" arrivalPos="186.40" arrivalSpeed="13.88" duration="79.50" routeLength="880.59" waitingTime="0.00" waitingCount="0" stopTime="0.00" timeLoss="14.37" rerouteNo="1" devices="tripinfo_am_sn.37 routing_am_sn.37" vType="passenger" speedFactor="1.01" vaporized=""/>
    <tripinfo id="am_sn.38" depart="124.40" departLane="bottom1B0_0" departPos="5.10" departSpeed="0.00" departDelay="0.06" arrival="203.10" arrivalLane="bottom0A0_2" arrivalPos="186.40" arrivalSpeed="14.24" duration="78.70" routeLength="880.59" waitingTime="0.30" waitingCount="1" stopTime="0.00" timeLoss="15.35" rerouteNo="1" devices="tripinfo_am_sn.38 routing_am_sn.38" vType="passenger" speedFactor="1.03" vaporized=""/>
    <tripinfo id="am_sn.39" depart="127.70" departLane="bottom1B0_0" departPos="5.10" departSpeed="0.00" departDelay="0.09" arrival="206.30" arrivalLane="bottom0A0_2" arrivalPos="186.40" arrivalSpeed="14.08" duration="78.60" routeLength="880.59" waitingTime="0.00" waitingCount="0" stopTime="0.00" timeLoss="14.12" rerouteNo="1" devices="tripinfo_am_sn.39 routing_am_sn.39" vType="passenger" speedFactor="1.02" vaporized=""/>
    <tripinfo id="am_ns.20" depart="60.00" departLane="bottom0A0_0" departPos="5.10" departSpeed="0.00" departDelay="0.00" arrival="206.40" arrivalLane="bottom1B0_2" arrivalPos="186.40" arrivalSpeed="11.73" duration="146.40" routeLength="849.63" waitingTime="4.30" waitingCount="3" stopTime="0.00" timeLoss="75.82" rerouteNo="1" devices="tripinfo_am_ns.20 routing_am_ns.20" vType="passenger" speedFactor="0.90" vaporized=""/>
    <tripinfo id="am_sn.40" depart="130.90" departLane="bottom1B0_0" departPos="5.10" departSpeed="0.00" departDelay="0.02" arrival="207.90" arrivalLane="bottom0A0_2" arrivalPos="186.40" arrivalSpeed="15.84" duration="77.00" routeLength="880.59" waitingTime="0.30" waitingCount="1" stopTime="0.00" timeLoss="19.89" rerouteNo="1" devices="tripinfo_am_sn.40 routing_am_sn.40" vType="passenger" speedFactor="1.15" vaporized=""/>
    <tripinfo id="am_sn.41" depart="134.20" departLane="bottom1B0_0" departPos="5.10" departSpeed="0.00" departDelay="0.05" arrival="212.30" arrivalLane="bottom0A0_2" arrivalPos="186.40" arrivalSpeed="13.83" duration="78.10" routeLength="880.59" waitingTime="0.00" waitingCount="0" stopTime="0.00" timeLoss="12.63" rerouteNo="1" devices="tripinfo_am_sn.41 routing_am_sn.41" vType="passenger" speedFactor="1.00" vaporized=""/>
    <tripinfo id="am_ns.21" depart="63.00" departLane="bottom0A0_0" departPos="5.10" departSpeed="0.00" departDelay="0.00" arrival="212.60" arrivalLane="bottom1B0_2" arrivalPos="186.40" arrivalSpeed="11.37" duration="149.60" routeLength="849.63" waitingTime="3.30" waitingCount="3" stopTime="0.00" timeLoss="83.08" rerouteNo="1" devices="tripinfo_am_ns.21 routing_am_ns.21" vType="passenger" speedFactor="0.96" vaporized=""/>
    <tripinfo id="am_sn.42" depart="137.50" departLane="bottom1B0_0" departPos="5.10" departSpeed="0.00" departDelay="0.08" arrival="215.30" arrivalLane="bottom0A0_2" arrivalPos="186.40" arrivalSpeed="13.91" duration="77.80" routeLength="880.59" waitingTime="0.20" waitingCount="1" stopTime="0.00" timeLoss="12.74" rerouteNo="1" devices="tripinfo_am_sn.42 routing_am_sn.42" vType="passenger" speedFactor="1.01" vaporized=""/>
    <tripinfo id="am_sn.43" depart="140.70" departLane="bottom1B0_0" departPos="5.10" departSpeed="0.00" departDelay="0.00" arrival="218.20" arrivalLane="bottom0A0_2" arrivalPos="186.40" arrivalSpeed="14.10" duration="77.50" routeLength="880.59" waitingTime="0.00" waitingCount="0" stopTime="0.00" timeLoss="12.96" rerouteNo="1" devices="tripinfo_am_sn.43 routing_am_sn.43" vType="passenger" speedFactor="1.02" vaporized=""/>
    <tripinfo id="am_ns.38" depart="114.00" departLane="bottom0A0_0" departPos="5.10" departSpeed="0.00" departDelay="0.00" arrival="218.80" arrivalLane="bottom1B0_2" arrivalPos="186.40" arrivalSpeed="11.02" duration="104.80" routeLength="849.63" waitingTime="13.90" waitingCount="4" stopTime="0.00" timeLoss="44.55" rerouteNo="1" devices="tripinfo_am_ns.38 routing_am_ns.38" vType="passenger" speedFactor="1.06" vaporized=""/>