<?xml version="1.0" encoding="UTF-8"?>

<!-- generated on 2026-07-02 15:20:54 by Eclipse SUMO sumo Version 1.24.0
<sumoConfiguration xmlns:xsi="http://www.w3.org/2001/XMLSchema-instance" xsi:noNamespaceSchemaLocation="http://sumo.dlr.de/xsd/sumoConfiguration.xsd">

    <input>
        <net-file value="C:\Users\24924\Desktop\智能运输系统设计与集成综合实验\algorithm\sumo\city_network.net.xml"/>
        <route-files value="C:\Users\24924\Desktop\智能运输系统设计与集成综合实验\algorithm\sumo\city_flows.rou.xml"/>
        <additional-files value="C:\Users\24924\Desktop\智能运输系统设计与集成综合实验\algorithm\sumo\detectors.add.xml"/>
    </input>

    <output>
        <tripinfo-output value="C:\Users\24924\Desktop\智能运输系统设计与集成综合实验\algorithm\sumo\../data/raw/tripinfo.xml"/>
    </output>

    <time>
        <begin value="0"/>
        <end value="21600"/>
        <step-length value="0.1"/>
    </time>

    <processing>
        <eager-insert value="true"/>
    </processing>

</sumoConfiguration>
-->

<tripinfos xmlns:xsi="http://www.w3.org/2001/XMLSchema-instance" xsi:noNamespaceSchemaLocation="http://sumo.dlr.de/xsd/tripinfo_file.xsd">
</tripinfos>
