<?xml version="1.0" encoding="UTF-8"?>

<!-- generated on 2026-07-06 11:47:23 by Eclipse SUMO sumo Version 1.24.0
<sumoConfiguration xmlns:xsi="http://www.w3.org/2001/XMLSchema-instance" xsi:noNamespaceSchemaLocation="http://sumo.dlr.de/xsd/sumoConfiguration.xsd">

    <input>
        <net-file value="sumo/real_network.net.xml"/>
        <route-files value="sumo/city_flows.rou.xml"/>
        <additional-files value="sumo/detectors.add.xml"/>
    </input>

    <output>
        <tripinfo-output value="sumo/../data/raw/tripinfo.xml"/>
    </output>

    <time>
        <begin value="0"/>
        <end value="3600"/>
        <step-length value="0.1"/>
    </time>

    <processing>
        <eager-insert value="true"/>
    </processing>

    <report>
        <no-warnings value="true"/>
        <no-step-log value="true"/>
    </report>

</sumoConfiguration>
-->

<tripinfos xmlns:xsi="http://www.w3.org/2001/XMLSchema-instance" xsi:noNamespaceSchemaLocation="http://sumo.dlr.de/xsd/tripinfo_file.xsd">
    <tripinfo id="ns.0" depart="0.00" departLane="vn_2_0_1_0" departPos="5.10" departSpeed="0.00" departDelay="0.00" arrival="73.10" arrivalLane="vn_2_5_6_0" arrivalPos="277.20" arrivalSpeed="17.56" duration="73.10" routeLength="1212.10" waitingTime="0.00" waitingCount="0" stopTime="0.00" timeLoss="4.48" rerouteNo="1" devices="tripinfo_ns.0 routing_ns.0" vType="passenger" speedFactor="1.06" vaporized=""/>
    <tripinfo id="ns.3" depart="7.80" departLane="vn_2_0_1_0" departPos="5.10" departSpeed="0.00" departDelay="3.30" arrival="77.30" arrivalLane="vn_2_5_6_0" arrivalPos="277.20" arrivalSpeed="18.59" duration="69.50" routeLength="1212.10" waitingTime="0.00" waitingCount="0" stopTime="0.00" timeLoss="4.74" rerouteNo="1" devices="tripinfo_ns.3 routing_ns.3" vType="passenger" speedFactor="1.12" vaporized=""/>
    <tripinfo id="ns.8" depart="20.80" departLane="vn_2_0_1_0" departPos="5.10" departSpeed="0.00" departDelay="8.80" arrival="88.70" arrivalLane="vn_2_5_6_2" arrivalPos="277.20" arrivalSpeed="19.53" duration="67.90" routeLength="1212.10" waitingTime="0.00" waitingCount="0" stopTime="0.00" timeLoss="5.79" rerouteNo="1" devices="tripinfo_ns.8 routing_ns.8" vType="passenger" speedFactor="1.17" vaporized=""/>
    <tripinfo id="ns.5" depart="13.00" departLane="vn_2_0_1_0" departPos="5.10" departSpeed="0.00" departDelay="5.50" arrival="89.60" arrivalLane="vn_2_5_6_1" arrivalPos="277.20" arrivalSpeed="16.72" duration="76.60" routeLength="1212.10" waitingTime="0.00" waitingCount="0" stopTime="0.00" timeLoss="4.58" rerouteNo="1" devices="tripinfo_ns.5 routing_ns.5" vType="passenger" speedFactor="1.01" vaporized=""/>
    <tripinfo id="ns.9" depart="23.50" departLane="vn_2_0_1_0" departPos="5.10" departSpeed="0.00" departDelay="10.00" arrival="90.70" arrivalLane="vn_2_5_6_2" arrivalPos="277.20" arrivalSpeed="19.54" duration="67.20" routeLength="1212.10" waitingTime="0.00" waitingCount="0" stopTime="0.00" timeLoss="5.54" rerouteNo="1" devices="tripinfo_ns.9 routing_ns.9" vType="passenger" speedFactor="1.18" vaporized=""/>
    <tripinfo id="ns.4" depart="10.40" departLane="vn_2_0_1_0" departPos="5.10" departSpeed="0.00" departDelay="4.40" arrival="93.00" arrivalLane="vn_2_5_6_1" arrivalPos="277.20" arrivalSpeed="15.59" duration="82.60" routeLength="1212.10" waitingTime="0.00" waitingCount="0" stopTime="0.00" timeLoss="5.30" rerouteNo="1" devices="tripinfo_ns.4 routing_ns.4" vType="passenger" speedFactor="0.94" vaporized=""/>
    <tripinfo id="ns.1" depart="2.60" departLane="vn_2_0_1_0" departPos="5.10" departSpeed="0.00" departDelay="1.10" arrival="93.90" arrivalLane="vn_2_5_6_0" arrivalPos="277.20" arrivalSpeed="13.73" duration="91.30" routeLength="1212.10" waitingTime="0.00" waitingCount="0" stopTime="0.00" timeLoss="3.77" rerouteNo="1" devices="tripinfo_ns.1 routing_ns.1" vType="passenger" speedFactor="0.83" vaporized=""/>
    <tripinfo id="ns.2" depart="5.20" departLane="vn_2_0_1_0" departPos="5.10" departSpeed="0.00" departDelay="2.20" arrival="95.30" arrivalLane="vn_2_5_6_1" arrivalPos="277.20" arrivalSpeed="14.16" duration="90.10" routeLength="1212.10" waitingTime="0.00" waitingCount="0" stopTime="0.00" timeLoss="5.21" rerouteNo="1" devices="tripinfo_ns.2 routing_ns.2" vType="passenger" speedFactor="0.86" vaporized=""/>
    <tripinfo id="ns.7" depart="18.20" departLane="vn_2_0_1_0" departPos="5.10" departSpeed="0.00" departDelay="7.70" arrival="101.50" arrivalLane="vn_2_5_6_1" arrivalPos="277.20" arrivalSpeed="15.52" duration="83.30" routeLength="1212.10" waitingTime="0.00" waitingCount="0" stopTime="0.00" timeLoss="5.19" rerouteNo="1" devices="tripinfo_ns.7 routing_ns.7" vType="passenger" speedFactor="0.93" vaporized=""/>
    <tripinfo id="ns.6" depart="15.60" departLane="vn_2_0_1_0" departPos="5.10" departSpeed="0.00" departDelay="6.60" arrival="102.90" arrivalLane="vn_2_5_6_0" arrivalPos="277.20" arrivalSpeed="14.46" duration="87.30" routeLength="1212.10" waitingTime="0.00" waitingCount="0" stopTime="0.00" timeLoss="3.90" rerouteNo="1" devices="tripinfo_ns.6 routing_ns.6" vType="passenger" speedFactor="0.87" vaporized=""/>
    <tripinfo id="ns.10" depart="26.20" departLane="vn_2_0_1_0" departPos="5.10" departSpeed="0.00" departDelay="11.20" arrival="106.30" arrivalLane="vn_2_5_6_0" arrivalPos="277.20" arrivalSpeed="15.93" duration="80.10" routeLength="1212.10" waitingTime="0.00" waitingCount="0" stopTime="0.00" timeLoss="4.13" rerouteNo="1" devices="tripinfo_ns.10 routing_ns.10" vType="passenger" speedFactor="0.96" vaporized=""/>
    <tripinfo id="ns.11" depart="28.80" departLane="vn_2_0_1_0" departPos="5.10" departSpeed="0.00" departDelay="12.30" arrival="108.70" arrivalLane="vn_2_5_6_1" arrivalPos="277.20" arrivalSpeed="18.05" duration="79.90" routeLength="1212.10" waitingTime="0.00" waitingCount="0" stopTime="0.00" timeLoss="12.99" rerouteNo="1" devices="tripinfo_ns.11 routing_ns.11" vType="passenger" speedFactor="1.09" vaporized=""/>
    <tripinfo id="ns.13" depart="34.00" departLane="vn_2_0_1_0" departPos="5.10" departSpeed="0.00" departDelay="14.50" arrival="114.60" arrivalLane="vn_2_5_6_1" arrivalPos="277.20" arrivalSpeed="18.25" duration="80.60" routeLength="1212.10" waitingTime="0.00" waitingCount="0" stopTime="0.00" timeLoss="14.20" rerouteNo="1" devices="tripinfo_ns.13 routing_ns.13" vType="passenger" speedFactor="1.10" vaporized=""/>
    <tripinfo id="ns.15" depart="39.20" departLane="vn_2_0_1_0" departPos="5.10" departSpeed="0.00" departDelay="16.70" arrival="116.30" arrivalLane="vn_2_5_6_1" arrivalPos="277.20" arrivalSpeed="14.02" duration="77.10" routeLength="1212.10" waitingTime="0.00" waitingCount="0" stopTime="0.00" timeLoss="12.11" rerouteNo="1" devices="tripinfo_ns.15 routing_ns.15" vType="passenger" speedFactor="1.12" vaporized=""/>
    <tripinfo id="ns.12" depart="31.40" departLane="vn_2_0_1_0" departPos="5.10" departSpeed="0.00" departDelay="13.40" arrival="118.10" arrivalLane="vn_2_5_6_0" arrivalPos="277.20" arrivalSpeed="14.51" duration="86.70" routeLength="1212.10" waitingTime="0.00" waitingCount="0" stopTime="0.00" timeLoss="3.77" rerouteNo="1" devices="tripinfo_ns.12 routing_ns.12" vType="passenger" speedFactor="0.88" vaporized=""/>
    <tripinfo id="ns.14" depart="36.60" departLane="vn_2_0_1_0" departPos="5.10" departSpeed="0.00" departDelay="15.60" arrival="119.50" arrivalLane="vn_2_5_6_0" arrivalPos="277.20" arrivalSpeed="17.37" duration="82.90" routeLength="1212.10" waitingTime="0.00" waitingCount="0" stopTime="0.00" timeLoss="19.24" rerouteNo="1" devices="tripinfo_ns.14 routing_ns.14" vType="passenger" speedFactor="1.14" vaporized=""/>
    <tripinfo id="ns.17" depart="44.50" departLane="vn_2_0_1_0" departPos="5.10" departSpeed="0.00" departDelay="19.00" arrival="121.30" arrivalLane="vn_2_5_6_0" arrivalPos="277.20" arrivalSpeed="17.00" duration="76.80" routeLength="1212.10" waitingTime="0.00" waitingCount="0" stopTime="0.00" timeLoss="5.63" rerouteNo="1" devices="tripinfo_ns.17 routing_ns.17" vType="passenger" speedFactor="1.02" vaporized=""/>
    <tripinfo id="sn.0" depart="0.00" departLane="vs_2_1_0_0" departPos="5.10" departSpeed="0.00" departDelay="0.00" arrival="122.40" arrivalLane="vs_2_6_5_2" arrivalPos="277.20" arrivalSpeed="15.56" duration="122.40" routeLength="1698.84" waitingTime="0.00" waitingCount="0" stopTime="0.00" timeLoss="11.63" rerouteNo="1" devices="tripinfo_sn.0 routing_sn.0" vType="passenger" speedFactor="0.94" vaporized=""/>
    <tripinfo id="sn.2" depart="3.90" departLane="vs_2_1_0_0" departPos="5.10" departSpeed="0.00" departDelay="0.63" arrival="124.20" arrivalLane="vs_2_6_5_2" arrivalPos="277.20" arrivalSpeed="17.08" duration="120.30" routeLength="1698.84" waitingTime="0.00" waitingCount="0" stopTime="0.00" timeLoss="19.08" rerouteNo="1" devices="tripinfo_sn.2 routing_sn.2" vType="passenger" speedFactor="1.03" vaporized=""/>
    <tripinfo id="sn.4" depart="7.60" departLane="vs_2_1_0_0" departPos="5.10" departSpeed="0.00" departDelay="1.06" arrival="125.70" arrivalLane="vs_2_6_5_2" arrivalPos="277.20" arrivalSpeed="19.24" duration="118.10" routeLength="1698.84" waitingTime="0.00" waitingCount="0" stopTime="0.00" timeLoss="28.36" rerouteNo="1" devices="tripinfo_sn.4 routing_sn.4" vType="passenger" speedFactor="1.16" vaporized=""/>
    <tripinfo id="ns.18" depart="47.10" departLane="vn_2_0_1_0" departPos="5.10" departSpeed="0.00" departDelay="20.10" arrival="126.00" arrivalLane="vn_2_5_6_1" arrivalPos="277.20" arrivalSpeed="17.52" duration="78.90" routeLength="1212.10" waitingTime="0.00" waitingCount="0" stopTime="0.00" timeLoss="10.03" rerouteNo="1" devices="tripinfo_ns.18 routing_ns.18" vType="passenger" speedFactor="1.06" vaporized=""/>
    <tripinfo id="ns.16" depart="41.80" departLane="vn_2_0_1_0" departPos="5.10" departSpeed="0.00" departDelay="17.80" arrival="128.10" arrivalLane="vn_2_5_6_0" arrivalPos="277.20" arrivalSpeed="14.70" duration="86.30" routeLength="1212.10" waitingTime="0.00" waitingCount="0" stopTime="0.00" timeLoss="3.88" rerouteNo="1" devices="tripinfo_ns.16 routing_ns.16" vType="passenger" speedFactor="0.88" vaporized=""/>
    <tripinfo id="ns.19" depart="49.80" departLane="vn_2_0_1_0" departPos="5.10" departSpeed="0.00" departDelay="21.30" arrival="129.60" arrivalLane="vn_2_5_6_0" arrivalPos="277.20" arrivalSpeed="16.26" duration="79.80" routeLength="1212.10" waitingTime="0.00" waitingCount="0" stopTime="0.00" timeLoss="5.66" rerouteNo="1" devices="tripinfo_ns.19 routing_ns.19" vType="passenger" speedFactor="0.98" vaporized=""/>
    <tripinfo id="ns.20" depart="52.40" departLane="vn_2_0_1_0" departPos="5.10" departSpeed="0.00" departDelay="22.40" arrival="130.90" arrivalLane="vn_2_5_6_0" arrivalPos="277.20" arrivalSpeed="16.60" duration="78.50" routeLength="1212.10" waitingTime="0.00" waitingCount="0" stopTime="0.00" timeLoss="5.66" rerouteNo="1" devices="tripinfo_ns.20 routing_ns.20" vType="passenger" speedFactor="1.00" vaporized=""/>
    <tripinfo id="sn.1" depart="2.00" departLane="vs_2_1_0_0" departPos="5.10" departSpeed="0.00" departDelay="0.36" arrival="132.90" arrivalLane="vs_2_6_5_2" arrivalPos="277.20" arrivalSpeed="14.69" duration="130.90" routeLength="1698.84" waitingTime="0.00" waitingCount="0" stopTime="0.00" timeLoss="13.63" rerouteNo="1" devices="tripinfo_sn.1 routing_sn.1" vType="passenger" speedFactor="0.89" vaporized=""/>
    <tripinfo id="ns.21" depart="55.10" departLane="vn_2_0_1_0" departPos="5.10" departSpeed="0.00" departDelay="23.60" arrival="133.80" arrivalLane="vn_2_5_6_0" arrivalPos="277.20" arrivalSpeed="16.17" duration="78.70" routeLength="1212.10" waitingTime="0.00" waitingCount="0" stopTime="0.00" timeLoss="4.17" rerouteNo="1" devices="tripinfo_ns.21 routing_ns.21" vType="passenger" speedFactor="0.98" vaporized=""/>
    <tripinfo id="ns.22" depart="57.70" departLane="vn_2_0_1_0" departPos="5.10" departSpeed="0.00" departDelay="24.70" arrival="134.10" arrivalLane="vn_2_5_6_1" arrivalPos="277.20" arrivalSpeed="17.02" duration="76.40" routeLength="1212.10" waitingTime="0.00" waitingCount="0" stopTime="0.00" timeLoss="5.25" rerouteNo="1" devices="tripinfo_ns.22 routing_ns.22" vType="passenger" speedFactor="1.02" vaporized=""/>
    <tripinfo id="sn.3" depart="5.80" departLane="vs_2_1_0_0" departPos="5.10" departSpeed="0.00" departDelay="0.89" arrival="135.60" arrivalLane="vs_2_6_5_2" arrivalPos="277.20" arrivalSpeed="15.37" duration="129.80" routeLength="1698.84" waitingTime="0.00" waitingCount="0" stopTime="0.00" timeLoss="17.65" rerouteNo="1" devices="tripinfo_sn.3 routing_sn.3" vType="passenger" speedFactor="0.93" vaporized=""/>
    <tripinfo id="sn.6" depart="10.90" departLane="vs_2_1_0_0" departPos="5.10" departSpeed="0.00" departDelay="1.08" arrival="137.00" arrivalLane="vs_2_6_5_2" arrivalPos="277.20" arrivalSpeed="18.18" duration="126.10" routeLength="1698.84" waitingTime="0.00" waitingCount="0" stopTime="0.00" timeLoss="34.35" rerouteNo="1" devices="tripinfo_sn.6 routing_sn.6" vType="passenger" speedFactor="1.13" vaporized=""/>
    <tripinfo id="ns.24" depart="63.00" departLane="vn_2_0_1_0" departPos="5.10" departSpeed="0.00" departDelay="27.00" arrival="142.30" arrivalLane="vn_2_5_6_1" arrivalPos="277.20" arrivalSpeed="16.75" duration="79.30" routeLength="1212.10" waitingTime="0.00" waitingCount="0" stopTime="0.00" timeLoss="7.25" rerouteNo="1" devices="tripinfo_ns.24 routing_ns.24" vType="passenger" speedFactor="1.01" vaporized=""/>
    <tripinfo id="ns.23" depart="60.30" departLane="vn_2_0_1_0" departPos="5.10" departSpeed="0.00" departDelay="25.80" arrival="143.40" arrivalLane="vn_2_5_6_0" arrivalPos="277.20" arrivalSpeed="15.31" duration="83.10" routeLength="1212.10" waitingTime="0.00" waitingCount="0" stopTime="0.00" timeLoss="4.17" rerouteNo="1" devices="tripinfo_ns.23 routing_ns.23" vType="passenger" speedFactor="0.92" vaporized=""/>
    <tripinfo id="sn.5" depart="9.40" departLane="vs_2_1_0_0" departPos="5.10" departSpeed="0.00" departDelay="1.22" arrival="143.50" arrivalLane="vs_2_6_5_2" arrivalPos="277.20" arrivalSpeed="14.80" duration="134.10" routeLength="1698.84" waitingTime="0.00" waitingCount="0" stopTime="0.00" timeLoss="17.23" rerouteNo="1" devices="tripinfo_sn.5 routing_sn.5" vType="passenger" speedFactor="0.89" vaporized=""/>
    <tripinfo id="ns.26" depart="68.30" departLane="vn_2_0_1_0" departPos="5.10" departSpeed="0.00" departDelay="29.30" arrival="144.00" arrivalLane="vn_2_5_6_1" arrivalPos="277.20" arrivalSpeed="17.85" duration="75.70" routeLength="1212.10" waitingTime="0.00" waitingCount="0" stopTime="0.00" timeLoss="7.89" rerouteNo="1" devices="tripinfo_ns.26 routing_ns.26" vType="passenger" speedFactor="1.07" vaporized=""/>
    <tripinfo id="sn.7" depart="12.40" departLane="vs_2_1_0_0" departPos="5.10" departSpeed="0.00" departDelay="0.95" arrival="145.00" arrivalLane="vs_2_6_5_2" arrivalPos="277.20" arrivalSpeed="16.75" duration="132.60" routeLength="1698.84" waitingTime="0.00" waitingCount="0" stopTime="0.00" timeLoss="29.25" rerouteNo="1" devices="tripinfo_sn.7 routing_sn.7" vType="passenger" speedFactor="1.01" vaporized=""/>
    <tripinfo id="ns.25" depart="65.60" departLane="vn_2_0_1_0" departPos="5.10" departSpeed="0.00" departDelay="28.10" arrival="145.90" arrivalLane="vn_2_5_6_0" arrivalPos="277.20" arrivalSpeed="15.92" duration="80.30" routeLength="1212.10" waitingTime="0.00" waitingCount="0" stopTime="0.00" timeLoss="4.23" rerouteNo="1" devices="tripinfo_ns.25 routing_ns.25" vType="passenger" speedFactor="0.96" vaporized=""/>
    <tripinfo id="sn.8" depart="14.00" departLane="vs_2_1_0_0" departPos="5.10" departSpeed="0.00" departDelay="0.91" arrival="148.20" arrivalLane="vs_2_6_5_2" arrivalPos="277.20" arrivalSpeed="16.10" duration="134.20" routeLength="1698.84" waitingTime="0.00" waitingCount="0" stopTime="0.00" timeLoss="27.39" rerouteNo="1" devices="tripinfo_sn.8 routing_sn.8" vType="passenger" speedFactor="0.97" vaporized=""/>
    <tripinfo id="ns.28" depart="73.50" departLane="vn_2_0_1_0" departPos="5.10" departSpeed="0.00" departDelay="31.50" arrival="150.20" arrivalLane="vn_2_5_6_1" arrivalPos="277.20" arrivalSpeed="16.70" duration="76.70" routeLength="1212.10" waitingTime="0.00" waitingCount="0" stopTime="0.00" timeLoss="4.60" rerouteNo="1" devices="tripinfo_ns.28 routing_ns.28" vType="passenger" speedFactor="1.01" vaporized=""/>
    <tripinfo id="sn.9" depart="15.50" departLane="vs_2_1_0_0" departPos="5.10" departSpeed="0.00" departDelay="0.78" arrival="150.30" arrivalLane="vs_2_6_5_2" arrivalPos="277.20" arrivalSpeed="17.08" duration="134.80" routeLength="1698.84" waitingTime="0.00" waitingCount="0" stopTime="0.00" timeLoss="33.90" rerouteNo="1" devices="tripinfo_sn.9 routing_sn.9" vType="passenger" speedFactor="1.03" vaporized=""/>
    <tripinfo id="ns.27" depart="70.90" departLane="vn_2_0_1_0" departPos="5.10" departSpeed="0.00" departDelay="30.40" arrival="150.90" arrivalLane="vn_2_5_6_0" arrivalPos="277.20" arrivalSpeed="15.90" duration="80.00" routeLength="1212.10" waitingTime="0.00" waitingCount="0" stopTime="0.00" timeLoss="4.19" rerouteNo="1" devices="tripinfo_ns.27 routing_ns.27" vType="passenger" speedFactor="0.96" vaporized=""/>
    <tripinfo id="ns.30" depart="78.80" departLane="vn_2_0_1_0" departPos="5.10" departSpeed="0.00" departDelay="33.80" arrival="151.80" arrivalLane="vn_2_5_6_1" arrivalPos="277.20" arrivalSpeed="18.38" duration="73.00" routeLength="1212.10" waitingTime="0.00" waitingCount="0" stopTime="0.00" timeLoss="7.05" rerouteNo="1" devices="tripinfo_ns.30 routing_ns.30" vType="passenger" speedFactor="1.10" vaporized=""/>
    <tripinfo id="sn.10" depart="17.10" departLane="vs_2_1_0_0" departPos="5.10" departSpeed="0.00" departDelay="0.74" arrival="152.90" arrivalLane="vs_2_6_5_2" arrivalPos="277.20" arrivalSpeed="17.34" duration="135.80" routeLength="1698.84" waitingTime="0.00" waitingCount="0" stopTime="0.00" timeLoss="36.20" rerouteNo="1" devices="tripinfo_sn.10 routing_sn.10" vType="passenger" speedFactor="1.04" vaporized=""/>
    <tripinfo id="ns.29" depart="76.10" departLane="vn_2_0_1_0" departPos="5.10" departSpeed="0.00" departDelay="32.60" arrival="153.00" arrivalLane="vn_2_5_6_0" arrivalPos="277.20" arrivalSpeed="16.65" duration="76.90" routeLength="1212.10" waitingTime="0.00" waitingCount="0" stopTime="0.00" timeLoss="4.43" rerouteNo="1" devices="tripinfo_ns.29 routing_ns.29" vType="passenger" speedFactor="1.00" vaporized=""/>
    <tripinfo id="we.3" depart="8.00" departLane="he_3_0_1_0" departPos="5.10" departSpeed="0.00" departDelay="3.85" arrival="154.80" arrivalLane="he_3_3_4_2" arrivalPos="278.20" arrivalSpeed="17.39" duration="146.80" routeLength="1383.10" waitingTime="56.40" waitingCount="1" stopTime="0.00" timeLoss="67.55" rerouteNo="1" devices="tripinfo_we.3 routing_we.3" vType="passenger" speedFactor="1.05" vaporized=""/>
    <tripinfo id="we.1" depart="2.60" departLane="he_3_0_1_0" departPos="5.10" departSpeed="0.00" departDelay="1.22" arrival="155.20" arrivalLane="he_3_3_4_1" arrivalPos="278.20" arrivalSpeed="17.11" duration="152.60" routeLength="1383.10" waitingTime="61.00" waitingCount="1" stopTime="0.00" timeLoss="72.07" rerouteNo="1" devices="tripinfo_we.1 routing_we.1" vType="passenger" speedFactor="1.03" vaporized=""/>
    <tripinfo id="we.0" depart="0.00" departLane="he_3_0_1_0" departPos="5.10" departSpeed="0.00" departDelay="0.00" arrival="155.70" arrivalLane="he_3_3_4_0" arrivalPos="278.20" arrivalSpeed="16.79" duration="155.70" routeLength="1383.10" waitingTime="63.30" waitingCount="1" stopTime="0.00" timeLoss="73.56" rerouteNo="1" devices="tripinfo_we.0 routing_we.0" vType="passenger" speedFactor="1.01" vaporized=""/>
    <tripinfo id="ns.31" depart="81.40" departLane="vn_2_0_1_0" departPos="5.10" departSpeed="0.00" departDelay="34.90" arrival="155.80" arrivalLane="vn_2_5_6_1" arrivalPos="277.20" arrivalSpeed="19.13" duration="74.40" routeLength="1212.10" waitingTime="0.00" waitingCount="0" stopTime="0.00" timeLoss="11.33" rerouteNo="1" devices="tripinfo_ns.31 routing_ns.31" vType="passenger" speedFactor="1.15" vaporized=""/>
    <tripinfo id="sn.12" depart="20.50" departLane="vs_2_1_0_0" departPos="5.10" departSpeed="0.00" departDelay="0.87" arrival="157.20" arrivalLane="vs_2_6_5_2" arrivalPos="277.20" arrivalSpeed="16.54" duration="136.70" routeLength="1698.84" waitingTime="0.00" waitingCount="0" stopTime="0.00" timeLoss="32.37" rerouteNo="1" devices="tripinfo_sn.12 routing_sn.12" vType="passenger" speedFactor="1.00" vaporized=""/>
    <tripinfo id="ns.32" depart="84.00" departLane="vn_2_0_1_0" departPos="5.10" departSpeed="0.00" departDelay="36.00" arrival="162.50" arrivalLane="vn_2_5_6_0" arrivalPos="277.20" arrivalSpeed="16.69" duration="78.50" routeLength="1212.10" waitingTime="0.00" waitingCount="0" stopTime="0.00" timeLoss="6.35" rerouteNo="1" devices="tripinfo_ns.32 routing_ns.32" vType="passenger" speedFactor="1.01" vaporized=""/>
    <tripinfo id="ns.33" depart="86.60" departLane="vn_2_0_1_0" departPos="5.10" departSpeed="0.00" departDelay="37.10" arrival="163.30" arrivalLane="vn_2_5_6_1" arrivalPos="277.20" arrivalSpeed="17.18" duration="76.70" routeLength="1212.10" waitingTime="0.00" waitingCount="0" stopTime="0.00" timeLoss="6.52" rerouteNo="1" devices="tripinfo_ns.33 routing_ns.33" vType="passenger" speedFactor="1.04" vaporized=""/>
    <tripinfo id="sn.11" depart="19.00" departLane="vs_2_1_0_0" departPos="5.10" departSpeed="0.00" departDelay="1.00" arrival="164.80" arrivalLane="vs_2_6_5_1" arrivalPos="277.20" arrivalSpeed="14.10" duration="145.80" routeLength="1698.84" waitingTime="0.00" waitingCount="0" stopTime="0.00" timeLoss="23.62" rerouteNo="1" devices="tripinfo_sn.11 routing_sn.11" vType="passenger" speedFactor="0.85" vaporized=""/>
    <tripinfo id="ns.34" depart="89.20" departLane="vn_2_0_1_0" departPos="5.10" departSpeed="0.00" departDelay="38.20" arrival="165.30" arrivalLane="vn_2_5_6_0" arrivalPos="277.20" arrivalSpeed="16.89" duration="76.10" routeLength="1212.10" waitingTime="0.00" waitingCount="0" stopTime="0.00" timeLoss="4.42" rerouteNo="1" devices="tripinfo_ns.34 routing_ns.34" vType="passenger" speedFactor="1.02" vaporized=""/>
    <tripinfo id="sn.14" depart="23.70" departLane="vs_2_1_0_0" departPos="5.10" departSpeed="0.00" departDelay="0.80" arrival="166.00" arrivalLane="vs_2_6_5_2" arrivalPos="277.20" arrivalSpeed="16.39" duration="142.30" routeLength="1698.84" waitingTime="0.00" waitingCount="0" stopTime="0.00" timeLoss="36.90" rerouteNo="1" devices="tripinfo_sn.14 routing_sn.14" vType="passenger" speedFactor="0.99" vaporized=""/>
    <tripinfo id="ns.35" depart="91.80" departLane="vn_2_0_1_0" departPos="5.10" departSpeed="0.00" departDelay="39.30" arrival="168.80" arrivalLane="vn_2_5_6_1" arrivalPos="277.20" arrivalSpeed="19.31" duration="77.00" routeLength="1212.10" waitingTime="0.00" waitingCount="0" stopTime="0.00" timeLoss="14.50" rerouteNo="1" devices="tripinfo_ns.35 routing_ns.35" vType="passenger" speedFactor="1.16" vaporized=""/>
    <tripinfo id="sn.13" depart="22.20" departLane="vs_2_1_0_0" departPos="5.10" departSpeed="0.00" departDelay="0.93" arrival="168.90" arrivalLane="vs_2_6_5_2" arrivalPos="277.20" arrivalSpeed="16.16" duration="146.70" routeLength="1698.84" waitingTime="0.00" waitingCount="0" stopTime="0.00" timeLoss="39.49" rerouteNo="1" devices="tripinfo_sn.13 routing_sn.13" vType="passenger" speedFactor="0.97" vaporized=""/>
    <tripinfo id="sn.15" depart="25.50" departLane="vs_2_1_0_0" departPos="5.10" departSpeed="0.00" departDelay="0.96" arrival="172.80" arrivalLane="vs_2_6_5_2" arrivalPos="277.20" arrivalSpeed="15.21" duration="147.30" routeLength="1698.84" waitingTime="0.00" waitingCount="0" stopTime="0.00" timeLoss="33.70" rerouteNo="1" devices="tripinfo_sn.15 routing_sn.15" vType="passenger" speedFactor="0.91" vaporized=""/>
    <tripinfo id="ns.37" depart="97.00" departLane="vn_2_0_1_0" departPos="5.10" departSpeed="0.00" departDelay="41.50" arrival="173.10" arrivalLane="vn_2_5_6_1" arrivalPos="277.20" arrivalSpeed="17.22" duration="76.10" routeLength="1212.10" waitingTime="0.00" waitingCount="0" stopTime="0.00" timeLoss="6.09" rerouteNo="1" devices="tripinfo_ns.37 routing_ns.37" vType="passenger" speedFactor="1.04" vaporized=""/>
    <tripinfo id="sn.16" depart="27.00" departLane="vs_2_1_0_0" departPos="5.10" departSpeed="0.00" departDelay="0.82" arrival="175.00" arrivalLane="vs_2_6_5_2" arrivalPos="277.20" arrivalSpeed="16.13" duration="148.00" routeLength="1698.84" waitingTime="0.00" waitingCount="0" stopTime="0.00" timeLoss="41.16" rerouteNo="1" devices="tripinfo_sn.16 routing_sn.16" vType="passenger" speedFactor="0.97" vaporized=""/>
    <tripinfo id="ns.39" depart="102.30" departLane="vn_2_0_1_0" departPos="5.10" departSpeed="0.00" departDelay="43.80" arrival="175.50" arrivalLane="vn_2_5_6_0" arrivalPos="277.20" arrivalSpeed="17.98" duration="73.20" routeLength="1212.10" waitingTime="0.00" waitingCount="0" stopTime="0.00" timeLoss="5.74" rerouteNo="1" devices="tripinfo_ns.39 routing_ns.39" vType="passenger" speedFactor="1.08" vaporized=""/>
    <tripinfo id="sn.18" depart="30.20" departLane="vs_2_1_0_0" departPos="5.10" departSpeed="0.00" departDelay="0.75" arrival="176.90" arrivalLane="vs_2_6_5_2" arrivalPos="277.20" arrivalSpeed="17.15" duration="146.70" routeLength="1698.84" waitingTime="0.00" waitingCount="0" stopTime="0.00" timeLoss="46.25" rerouteNo="1" devices="tripinfo_sn.18 routing_sn.18" vType="passenger" speedFactor="1.03" vaporized=""/>
    <tripinfo id="ns.40" depart="104.90" departLane="vn_2_0_1_0" departPos="5.10" departSpeed="0.00" departDelay="44.90" arrival="179.70" arrivalLane="vn_2_5_6_1" arrivalPos="277.20" arrivalSpeed="17.89" duration="74.80" routeLength="1212.10" waitingTime="0.00" waitingCount="0" stopTime="0.00" timeLoss="7.25" rerouteNo="1" devices="tripinfo_ns.40 routing_ns.40" vType="passenger" speedFactor="1.08" vaporized=""/>
    <tripinfo id="sn.17" depart="28.80" departLane="vs_2_1_0_0" departPos="5.10" departSpeed="0.00" departDelay="0.99" arrival="179.90" arrivalLane="vs_2_6_5_2" arrivalPos="277.20" arrivalSpeed="17.13" duration="151.10" routeLength="1698.84" waitingTime="0.00" waitingCount="0" stopTime="0.00" timeLoss="50.30" rerouteNo="1" devices="tripinfo_sn.17 routing_sn.17" vType="passenger" speedFactor="1.03" vaporized=""/>
    <tripinfo id="sn.19" depart="31.50" departLane="vs_2_1_0_0" departPos="5.10" departSpeed="0.00" departDelay="0.42" arrival="181.40" arrivalLane="vs_2_6_5_2" arrivalPos="277.20" arrivalSpeed="19.01" duration="149.90" routeLength="1698.84" waitingTime="0.30" waitingCount="1" stopTime="0.00" timeLoss="59.32" rerouteNo="1" devices="tripinfo_sn.19 routing_sn.19" vType="passenger" speedFactor="1.15" vaporized=""/>
    <tripinfo id="ns.43" depart="112.70" departLane="vn_2_0_1_0" departPos="5.10" departSpeed="0.00" departDelay="48.20" arrival="181.90" arrivalLane="vn_2_5_6_1" arrivalPos="277.20" arrivalSpeed="19.00" duration="69.20" routeLength="1212.10" waitingTime="0.00" waitingCount="0" stopTime="0.00" timeLoss="5.48" rerouteNo="1" devices="tripinfo_ns.43 routing_ns.43" vType="passenger" speedFactor="1.14" vaporized=""/>
    <tripinfo id="ns.38" depart="99.70" departLane="vn_2_0_1_0" departPos="5.10" departSpeed="0.00" departDelay="42.70" arrival="183.60" arrivalLane="vn_2_5_6_0" arrivalPos="277.20" arrivalSpeed="15.39" duration="83.90" routeLength="1212.10" waitingTime="0.00" waitingCount="0" stopTime="0.00" timeLoss="5.44" rerouteNo="1" devices="tripinfo_ns.38 routing_ns.38" vType="passenger" speedFactor="0.93" vaporized=""/>
    <tripinfo id="sn.20" depart="33.50" departLane="vs_2_1_0_0" departPos="5.10" departSpeed="0.00" departDelay="0.78" arrival="185.60" arrivalLane="vs_2_6_5_2" arrivalPos="277.20" arrivalSpeed="16.69" duration="152.10" routeLength="1698.84" waitingTime="0.20" waitingCount="1" stopTime="0.00" timeLoss="49.02" rerouteNo="1" devices="tripinfo_sn.20 routing_sn.20" vType="passenger" speedFactor="1.01" vaporized=""/>
    <tripinfo id="sn.22" depart="36.40" departLane="vs_2_1_0_0" departPos="5.10" departSpeed="0.00" departDelay="0.41" arrival="191.30" arrivalLane="vs_2_6_5_2" arrivalPos="277.20" arrivalSpeed="15.08" duration="154.90" routeLength="1698.84" waitingTime="0.70" waitingCount="1" stopTime="0.00" timeLoss="40.25" rerouteNo="1" devices="tripinfo_sn.22 routing_sn.22" vType="passenger" speedFactor="0.91" vaporized=""/>
    <tripinfo id="ns.41" depart="107.50" departLane="vn_2_0_1_0" departPos="5.10" departSpeed="0.00" departDelay="46.00" arrival="191.30" arrivalLane="vn_2_5_6_1" arrivalPos="277.20" arrivalSpeed="15.17" duration="83.80" routeLength="1212.10" waitingTime="0.00" waitingCount="0" stopTime="0.00" timeLoss="4.23" rerouteNo="1" devices="tripinfo_ns.41 routing_ns.41" vType="passenger" speedFactor="0.91" vaporized=""/>
    <tripinfo id="ns.44" depart="115.30" departLane="vn_2_0_1_0" departPos="5.10" departSpeed="0.00" departDelay="49.30" arrival="192.70" arrivalLane="vn_2_5_6_1" arrivalPos="277.20" arrivalSpeed="17.11" duration="77.40" routeLength="1212.10" waitingTime="0.00" waitingCount="0" stopTime="0.00" timeLoss="6.81" rerouteNo="1" devices="tripinfo_ns.44 routing_ns.44" vType="passenger" speedFactor="1.03" vaporized=""/>
    <tripinfo id="ns.45" depart="117.90" departLane="vn_2_0_1_0" departPos="5.10" departSpeed="0.00" departDelay="50.40" arrival="194.10" arrivalLane="vn_2_5_6_1" arrivalPos="277.20" arrivalSpeed="17.01" duration="76.20" routeLength="1212.10" waitingTime="0.00" waitingCount="0" stopTime="0.00" timeLoss="5.31" rerouteNo="1" devices="tripinfo_ns.45 routing_ns.45" vType="passenger" speedFactor="1.03" vaporized=""/>
    <tripinfo id="ns.42" depart="110.10" departLane="vn_2_0_1_0" departPos="5.10" departSpeed="0.00" departDelay="47.10" arrival="195.70" arrivalLane="vn_2_5_6_1" arrivalPos="277.20" arrivalSpeed="15.63" duration="85.60" routeLength="1212.10" waitingTime="0.00" waitingCount="0" stopTime="0.00" timeLoss="8.22" rerouteNo="1" devices="tripinfo_ns.42 routing_ns.42" vType="passenger" speedFactor="0.94" vaporized=""/>