<?xml version="1.0" encoding="UTF-8"?>

<!-- generated on 2026-07-03 16:17:07 by Eclipse SUMO sumo Version 1.24.0
<sumoConfiguration xmlns:xsi="http://www.w3.org/2001/XMLSchema-instance" xsi:noNamespaceSchemaLocation="http://sumo.dlr.de/xsd/sumoConfiguration.xsd">

    <input>
        <net-file value="C:\Users\24924\Desktop\智能运输系统设计与集成综合实验\algorithm\sumo\city_network.net.xml"/>
        <route-files value="C:\Users\24924\Desktop\智能运输系统设计与集成综合实验\algorithm\sumo\city_flows.rou.xml"/>
        <additional-files value="C:\Users\24924\Desktop\智能运输系统设计与集成综合实验\algorithm\sumo\detectors.add.xml"/>
    </input>

    <output>
        <tripinfo-output value="C:\Users\24924\Desktop\智能运输系统设计与集成综合实验\algorithm\sumo\../data/raw/tripinfo.xml"/>
    </output>

    <time>
        <begin value="0"/>
        <end value="3600"/>
        <step-length value="0.1"/>
    </time>

    <processing>
        <eager-insert value="true"/>
    </processing>

    <traci_server>
        <remote-port value="55724"/>
    </traci_server>

</sumoConfiguration>
-->

<tripinfos xmlns:xsi="http://www.w3.org/2001/XMLSchema-instance" xsi:noNamespaceSchemaLocation="http://sumo.dlr.de/xsd/tripinfo_file.xsd">
    <tripinfo id="sim_sn.0" depart="0.00" departLane="bottom1B0_0" departPos="5.10" departSpeed="0.00" departDelay="0.00" arrival="77.60" arrivalLane="bottom0A0_2" arrivalPos="186.40" arrivalSpeed="12.97" duration="77.60" routeLength="880.59" waitingTime="0.00" waitingCount="0" stopTime="0.00" timeLoss="7.81" rerouteNo="1" devices="tripinfo_sim_sn.0 routing_sim_sn.0" vType="passenger" speedFactor="0.94" vaporized=""/>
    <tripinfo id="sim_sn.1" depart="1.90" departLane="bottom1B0_0" departPos="5.10" departSpeed="0.00" departDelay="0.08" arrival="79.30" arrivalLane="bottom0A0_2" arrivalPos="186.40" arrivalSpeed="14.98" duration="77.40" routeLength="880.59" waitingTime="0.00" waitingCount="0" stopTime="0.00" timeLoss="16.82" rerouteNo="1" devices="tripinfo_sim_sn.1 routing_sim_sn.1" vType="passenger" speedFactor="1.08" vaporized=""/>
    <tripinfo id="sim_ns.0" depart="0.00" departLane="bottom0A0_0" departPos="5.10" departSpeed="0.00" departDelay="0.00" arrival="82.90" arrivalLane="bottom1B0_1" arrivalPos="186.40" arrivalSpeed="14.64" duration="82.90" routeLength="849.63" waitingTime="2.70" waitingCount="4" stopTime="0.00" timeLoss="22.78" rerouteNo="1" devices="tripinfo_sim_ns.0 routing_sim_ns.0" vType="passenger" speedFactor="1.06" vaporized=""/>
    <tripinfo id="sim_sn.2" depart="3.70" departLane="bottom1B0_0" departPos="5.10" departSpeed="0.00" departDelay="0.06" arrival="89.30" arrivalLane="bottom0A0_2" arrivalPos="186.40" arrivalSpeed="11.54" duration="85.60" routeLength="880.59" waitingTime="0.00" waitingCount="0" stopTime="0.00" timeLoss="6.75" rerouteNo="1" devices="tripinfo_sim_sn.2 routing_sim_sn.2" vType="passenger" speedFactor="0.83" vaporized=""/>
    <tripinfo id="sim_sn.3" depart="5.50" departLane="bottom1B0_0" departPos="5.10" departSpeed="0.00" departDelay="0.05" arrival="91.70" arrivalLane="bottom0A0_2" arrivalPos="186.40" arrivalSpeed="12.28" duration="86.20" routeLength="880.59" waitingTime="0.00" waitingCount="0" stopTime="0.00" timeLoss="12.22" rerouteNo="1" devices="tripinfo_sim_sn.3 routing_sim_sn.3" vType="passenger" speedFactor="0.89" vaporized=""/>
    <tripinfo id="sim_sn.4" depart="7.30" departLane="bottom1B0_0" departPos="5.10" departSpeed="0.00" departDelay="0.03" arrival="95.60" arrivalLane="bottom0A0_2" arrivalPos="186.40" arrivalSpeed="11.89" duration="88.30" routeLength="880.59" waitingTime="0.00" waitingCount="0" stopTime="0.00" timeLoss="11.81" rerouteNo="1" devices="tripinfo_sim_sn.4 routing_sim_sn.4" vType="passenger" speedFactor="0.86" vaporized=""/>
    <tripinfo id="sim_ns.1" depart="2.50" departLane="bottom0A0_0" departPos="5.10" departSpeed="0.00" departDelay="0.83" arrival="96.10" arrivalLane="bottom1B0_1" arrivalPos="186.40" arrivalSpeed="13.91" duration="93.60" routeLength="849.63" waitingTime="4.50" waitingCount="6" stopTime="0.00" timeLoss="30.76" rerouteNo="1" devices="tripinfo_sim_ns.1 routing_sim_ns.1" vType="passenger" speedFactor="1.01" vaporized=""/>
    <tripinfo id="sim_sn.5" depart="9.10" departLane="bottom1B0_0" departPos="5.10" departSpeed="0.00" departDelay="0.01" arrival="97.10" arrivalLane="bottom0A0_2" arrivalPos="186.40" arrivalSpeed="14.23" duration="88.00" routeLength="880.59" waitingTime="0.00" waitingCount="0" stopTime="0.00" timeLoss="24.14" rerouteNo="1" devices="tripinfo_sim_sn.5 routing_sim_sn.5" vType="passenger" speedFactor="1.03" vaporized=""/>
    <tripinfo id="sim_sn.6" depart="11.00" departLane="bottom1B0_0" departPos="5.10" departSpeed="0.00" departDelay="0.09" arrival="98.60" arrivalLane="bottom0A0_2" arrivalPos="186.40" arrivalSpeed="15.58" duration="87.60" routeLength="880.59" waitingTime="0.00" waitingCount="0" stopTime="0.00" timeLoss="29.22" rerouteNo="1" devices="tripinfo_sim_sn.6 routing_sim_sn.6" vType="passenger" speedFactor="1.12" vaporized=""/>
    <tripinfo id="sim_sn.7" depart="12.80" departLane="bottom1B0_0" departPos="5.10" departSpeed="0.00" departDelay="0.07" arrival="103.00" arrivalLane="bottom0A0_2" arrivalPos="186.40" arrivalSpeed="12.80" duration="90.20" routeLength="880.59" waitingTime="0.00" waitingCount="0" stopTime="0.00" timeLoss="19.46" rerouteNo="1" devices="tripinfo_sim_sn.7 routing_sim_sn.7" vType="passenger" speedFactor="0.93" vaporized=""/>
    <tripinfo id="sim_sn.8" depart="14.60" departLane="bottom1B0_0" departPos="5.10" departSpeed="0.00" departDelay="0.06" arrival="105.80" arrivalLane="bottom0A0_2" arrivalPos="186.40" arrivalSpeed="12.98" duration="91.20" routeLength="880.59" waitingTime="0.00" waitingCount="0" stopTime="0.00" timeLoss="21.64" rerouteNo="1" devices="tripinfo_sim_sn.8 routing_sim_sn.8" vType="passenger" speedFactor="0.94" vaporized=""/>
    <tripinfo id="sim_ns.2" depart="5.20" departLane="bottom0A0_0" departPos="5.10" departSpeed="0.00" departDelay="1.87" arrival="106.20" arrivalLane="bottom1B0_1" arrivalPos="186.40" arrivalSpeed="14.30" duration="101.00" routeLength="849.63" waitingTime="3.60" waitingCount="5" stopTime="0.00" timeLoss="39.21" rerouteNo="1" devices="tripinfo_sim_ns.2 routing_sim_ns.2" vType="passenger" speedFactor="1.03" vaporized=""/>
    <tripinfo id="sim_sn.9" depart="16.40" departLane="bottom1B0_0" departPos="5.10" departSpeed="0.00" departDelay="0.04" arrival="107.30" arrivalLane="bottom0A0_2" arrivalPos="186.40" arrivalSpeed="16.03" duration="90.90" routeLength="880.59" waitingTime="0.00" waitingCount="0" stopTime="0.00" timeLoss="34.30" rerouteNo="1" devices="tripinfo_sim_sn.9 routing_sim_sn.9" vType="passenger" speedFactor="1.16" vaporized=""/>
    <tripinfo id="sim_sn.10" depart="18.20" departLane="bottom1B0_0" departPos="5.10" departSpeed="0.00" departDelay="0.02" arrival="110.50" arrivalLane="bottom0A0_2" arrivalPos="186.40" arrivalSpeed="13.98" duration="92.30" routeLength="880.59" waitingTime="0.00" waitingCount="0" stopTime="0.00" timeLoss="27.38" rerouteNo="1" devices="tripinfo_sim_sn.10 routing_sim_sn.10" vType="passenger" speedFactor="1.01" vaporized=""/>
    <tripinfo id="sim_sn.11" depart="20.00" departLane="bottom1B0_0" departPos="5.10" departSpeed="0.00" departDelay="0.00" arrival="116.40" arrivalLane="bottom0A0_2" arrivalPos="186.40" arrivalSpeed="11.46" duration="96.40" routeLength="880.59" waitingTime="0.00" waitingCount="0" stopTime="0.00" timeLoss="17.10" rerouteNo="1" devices="tripinfo_sim_sn.11 routing_sim_sn.11" vType="passenger" speedFactor="0.83" vaporized=""/>
    <tripinfo id="sim_sn.12" depart="21.90" departLane="bottom1B0_0" departPos="5.10" departSpeed="0.00" departDelay="0.08" arrival="118.20" arrivalLane="bottom0A0_2" arrivalPos="186.40" arrivalSpeed="12.65" duration="96.30" routeLength="880.59" waitingTime="0.00" waitingCount="0" stopTime="0.00" timeLoss="24.86" rerouteNo="1" devices="tripinfo_sim_sn.12 routing_sim_sn.12" vType="passenger" speedFactor="0.92" vaporized=""/>
    <tripinfo id="sim_ns.3" depart="7.80" departLane="bottom0A0_0" departPos="5.10" departSpeed="0.00" departDelay="2.80" arrival="118.30" arrivalLane="bottom1B0_1" arrivalPos="186.40" arrivalSpeed="14.51" duration="110.50" routeLength="849.63" waitingTime="3.60" waitingCount="4" stopTime="0.00" timeLoss="49.63" rerouteNo="1" devices="tripinfo_sim_ns.3 routing_sim_ns.3" vType="passenger" speedFactor="1.05" vaporized=""/>
    <tripinfo id="sim_sn.13" depart="23.70" departLane="bottom1B0_0" departPos="5.10" departSpeed="0.00" departDelay="0.07" arrival="119.70" arrivalLane="bottom0A0_2" arrivalPos="186.40" arrivalSpeed="15.63" duration="96.00" routeLength="880.59" waitingTime="0.00" waitingCount="0" stopTime="0.00" timeLoss="38.07" rerouteNo="1" devices="tripinfo_sim_sn.13 routing_sim_sn.13" vType="passenger" speedFactor="1.13" vaporized=""/>
    <tripinfo id="sim_sn.14" depart="25.50" departLane="bottom1B0_0" departPos="5.10" departSpeed="0.00" departDelay="0.05" arrival="121.10" arrivalLane="bottom0A0_2" arrivalPos="186.40" arrivalSpeed="16.29" duration="95.60" routeLength="880.59" waitingTime="0.00" waitingCount="0" stopTime="0.00" timeLoss="39.97" rerouteNo="1" devices="tripinfo_sim_sn.14 routing_sim_sn.14" vType="passenger" speedFactor="1.18" vaporized=""/>
    <tripinfo id="sim_sn.15" depart="27.30" departLane="bottom1B0_0" departPos="5.10" departSpeed="0.00" departDelay="0.03" arrival="125.00" arrivalLane="bottom0A0_2" arrivalPos="186.40" arrivalSpeed="13.91" duration="97.70" routeLength="880.59" waitingTime="0.00" waitingCount="0" stopTime="0.00" timeLoss="32.41" rerouteNo="1" devices="tripinfo_sim_sn.15 routing_sim_sn.15" vType="passenger" speedFactor="1.01" vaporized=""/>
    <tripinfo id="sim_sn.16" depart="29.10" departLane="bottom1B0_0" departPos="5.10" departSpeed="0.00" departDelay="0.01" arrival="128.00" arrivalLane="bottom0A0_2" arrivalPos="186.40" arrivalSpeed="13.71" duration="98.90" routeLength="880.59" waitingTime="0.00" waitingCount="0" stopTime="0.00" timeLoss="32.94" rerouteNo="1" devices="tripinfo_sim_sn.16 routing_sim_sn.16" vType="passenger" speedFactor="0.99" vaporized=""/>
    <tripinfo id="sim_sn.17" depart="31.00" departLane="bottom1B0_0" departPos="5.10" departSpeed="0.00" departDelay="0.09" arrival="131.10" arrivalLane="bottom0A0_2" arrivalPos="186.40" arrivalSpeed="13.43" duration="100.10" routeLength="880.59" waitingTime="0.00" waitingCount="0" stopTime="0.00" timeLoss="32.77" rerouteNo="1" devices="tripinfo_sim_sn.17 routing_sim_sn.17" vType="passenger" speedFactor="0.97" vaporized=""/>
    <tripinfo id="sim_ns.4" depart="10.50" departLane="bottom0A0_0" departPos="5.10" departSpeed="0.00" departDelay="3.84" arrival="131.20" arrivalLane="bottom1B0_1" arrivalPos="186.40" arrivalSpeed="12.77" duration="120.70" routeLength="849.63" waitingTime="4.50" waitingCount="7" stopTime="0.00" timeLoss="52.98" rerouteNo="1" devices="tripinfo_sim_ns.4 routing_sim_ns.4" vType="passenger" speedFactor="0.94" vaporized=""/>
    <tripinfo id="sim_sn.18" depart="32.80" departLane="bottom1B0_0" departPos="5.10" departSpeed="0.00" departDelay="0.08" arrival="132.70" arrivalLane="bottom0A0_2" arrivalPos="186.40" arrivalSpeed="15.25" duration="99.90" routeLength="880.59" waitingTime="0.00" waitingCount="0" stopTime="0.00" timeLoss="40.42" rerouteNo="1" devices="tripinfo_sim_sn.18 routing_sim_sn.18" vType="passenger" speedFactor="1.10" vaporized=""/>
    <tripinfo id="sim_sn.19" depart="34.60" departLane="bottom1B0_0" departPos="5.10" departSpeed="0.00" departDelay="0.06" arrival="136.10" arrivalLane="bottom0A0_2" arrivalPos="186.40" arrivalSpeed="14.19" duration="101.50" routeLength="880.59" waitingTime="0.00" waitingCount="0" stopTime="0.00" timeLoss="37.82" rerouteNo="1" devices="tripinfo_sim_sn.19 routing_sim_sn.19" vType="passenger" speedFactor="1.03" vaporized=""/>
    <tripinfo id="sim_sn.20" depart="36.40" departLane="bottom1B0_0" departPos="5.10" departSpeed="0.00" departDelay="0.04" arrival="138.10" arrivalLane="bottom0A0_2" arrivalPos="186.40" arrivalSpeed="15.13" duration="101.70" routeLength="880.59" waitingTime="0.00" waitingCount="0" stopTime="0.00" timeLoss="41.64" rerouteNo="1" devices="tripinfo_sim_sn.20 routing_sim_sn.20" vType="passenger" speedFactor="1.09" vaporized=""/>
    <tripinfo id="sim_ns.5" depart="13.20" departLane="bottom0A0_0" departPos="5.10" departSpeed="0.00" departDelay="4.87" arrival="140.50" arrivalLane="bottom1B0_1" arrivalPos="186.40" arrivalSpeed="15.07" duration="127.30" routeLength="849.63" waitingTime="2.40" waitingCount="3" stopTime="0.00" timeLoss="69.01" rerouteNo="1" devices="tripinfo_sim_ns.5 routing_sim_ns.5" vType="passenger" speedFactor="1.09" vaporized=""/>
    <tripinfo id="sim_sn.21" depart="38.20" departLane="bottom1B0_0" departPos="5.10" departSpeed="0.00" departDelay="0.02" arrival="141.50" arrivalLane="bottom0A0_2" arrivalPos="186.40" arrivalSpeed="14.37" duration="103.30" routeLength="880.59" waitingTime="0.00" waitingCount="0" stopTime="0.00" timeLoss="40.47" rerouteNo="1" devices="tripinfo_sim_sn.21 routing_sim_sn.21" vType="passenger" speedFactor="1.04" vaporized=""/>
    <tripinfo id="sim_sn.22" depart="40.00" departLane="bottom1B0_0" departPos="5.10" departSpeed="0.00" departDelay="0.00" arrival="146.30" arrivalLane="bottom0A0_2" arrivalPos="186.40" arrivalSpeed="12.40" duration="106.30" routeLength="880.59" waitingTime="0.50" waitingCount="1" stopTime="0.00" timeLoss="33.50" rerouteNo="1" devices="tripinfo_sim_sn.22 routing_sim_sn.22" vType="passenger" speedFactor="0.90" vaporized=""/>
    <tripinfo id="sim_sn.23" depart="41.90" departLane="bottom1B0_0" departPos="5.10" departSpeed="0.00" departDelay="0.09" arrival="150.20" arrivalLane="bottom0A0_2" arrivalPos="186.40" arrivalSpeed="11.69" duration="108.30" routeLength="880.59" waitingTime="0.60" waitingCount="1" stopTime="0.00" timeLoss="31.22" rerouteNo="1" devices="tripinfo_sim_sn.23 routing_sim_sn.23" vType="passenger" speedFactor="0.85" vaporized=""/>
    <tripinfo id="sim_sn.24" depart="43.70" departLane="bottom1B0_0" departPos="5.10" departSpeed="0.00" departDelay="0.07" arrival="151.70" arrivalLane="bottom0A0_2" arrivalPos="186.40" arrivalSpeed="14.72" duration="108.00" routeLength="880.59" waitingTime="0.90" waitingCount="1" stopTime="0.00" timeLoss="51.92" rerouteNo="1" devices="tripinfo_sim_sn.24 routing_sim_sn.24" vType="passenger" speedFactor="1.17" vaporized=""/>
    <tripinfo id="sim_ns.6" depart="15.90" departLane="bottom0A0_0" departPos="5.10" departSpeed="0.00" departDelay="5.90" arrival="153.10" arrivalLane="bottom1B0_1" arrivalPos="186.40" arrivalSpeed="11.60" duration="137.20" routeLength="849.63" waitingTime="3.20" waitingCount="4" stopTime="0.00" timeLoss="76.52" rerouteNo="1" devices="tripinfo_sim_ns.6 routing_sim_ns.6" vType="passenger" speedFactor="1.05" vaporized=""/>
    <tripinfo id="sim_sn.25" depart="45.50" departLane="bottom1B0_0" departPos="5.10" departSpeed="0.00" departDelay="0.05" arrival="153.20" arrivalLane="bottom0A0_2" arrivalPos="186.40" arrivalSpeed="15.10" duration="107.70" routeLength="880.59" waitingTime="1.20" waitingCount="1" stopTime="0.00" timeLoss="47.90" rerouteNo="1" devices="tripinfo_sim_sn.25 routing_sim_sn.25" vType="passenger" speedFactor="1.10" vaporized=""/>
    <tripinfo id="sim_sn.26" depart="47.30" departLane="bottom1B0_0" departPos="5.10" departSpeed="0.00" departDelay="0.03" arrival="156.30" arrivalLane="bottom0A0_2" arrivalPos="186.40" arrivalSpeed="13.79" duration="109.00" routeLength="880.59" waitingTime="1.60" waitingCount="2" stopTime="0.00" timeLoss="43.18" rerouteNo="1" devices="tripinfo_sim_sn.26 routing_sim_sn.26" vType="passenger" speedFactor="1.00" vaporized=""/>
    <tripinfo id="sim_sn.28" depart="51.00" departLane="bottom1B0_0" departPos="5.10" departSpeed="0.00" departDelay="0.10" arrival="159.70" arrivalLane="bottom0A0_2" arrivalPos="186.40" arrivalSpeed="13.38" duration="108.70" routeLength="880.59" waitingTime="0.00" waitingCount="0" stopTime="0.00" timeLoss="41.13" rerouteNo="1" devices="tripinfo_sim_sn.28 routing_sim_sn.28" vType="passenger" speedFactor="0.97" vaporized=""/>
    <tripinfo id="sim_sn.27" depart="49.10" departLane="bottom1B0_0" departPos="5.10" departSpeed="0.00" departDelay="0.01" arrival="161.20" arrivalLane="bottom0A0_2" arrivalPos="186.40" arrivalSpeed="15.77" duration="112.10" routeLength="880.59" waitingTime="2.80" waitingCount="3" stopTime="0.00" timeLoss="54.70" rerouteNo="1" devices="tripinfo_sim_sn.27 routing_sim_sn.27" vType="passenger" speedFactor="1.14" vaporized=""/>
    <tripinfo id="sim_sn.30" depart="54.60" departLane="bottom1B0_0" departPos="5.10" departSpeed="0.00" departDelay="0.06" arrival="165.00" arrivalLane="bottom0A0_2" arrivalPos="186.40" arrivalSpeed="13.58" duration="110.40" routeLength="880.59" waitingTime="0.00" waitingCount="0" stopTime="0.00" timeLoss="43.93" rerouteNo="1" devices="tripinfo_sim_sn.30 routing_sim_sn.30" vType="passenger" speedFactor="0.99" vaporized=""/>
    <tripinfo id="sim_ns.7" depart="18.50" departLane="bottom0A0_0" departPos="5.10" departSpeed="0.00" departDelay="6.84" arrival="165.60" arrivalLane="bottom1B0_2" arrivalPos="186.40" arrivalSpeed="10.44" duration="147.10" routeLength="849.63" waitingTime="3.80" waitingCount="7" stopTime="0.00" timeLoss="82.94" rerouteNo="1" devices="tripinfo_sim_ns.7 routing_sim_ns.7" vType="passenger" speedFactor="0.99" vaporized=""/>
    <tripinfo id="sim_sn.29" depart="52.80" departLane="bottom1B0_0" departPos="5.10" departSpeed="0.00" departDelay="0.08" arrival="166.60" arrivalLane="bottom0A0_2" arrivalPos="186.40" arrivalSpeed="15.53" duration="113.80" routeLength="880.59" waitingTime="1.60" waitingCount="3" stopTime="0.00" timeLoss="55.18" rerouteNo="1" devices="tripinfo_sim_sn.29 routing_sim_sn.29" vType="passenger" speedFactor="1.12" vaporized=""/>
    <tripinfo id="sim_sn.32" depart="58.20" departLane="bottom1B0_0" departPos="5.10" departSpeed="0.00" departDelay="0.02" arrival="171.70" arrivalLane="bottom0A0_2" arrivalPos="186.40" arrivalSpeed="12.63" duration="113.50" routeLength="880.59" waitingTime="0.00" waitingCount="0" stopTime="0.00" timeLoss="41.79" rerouteNo="1" devices="tripinfo_sim_sn.32 routing_sim_sn.32" vType="passenger" speedFactor="0.91" vaporized=""/>
    <tripinfo id="sim_sn.31" depart="56.40" departLane="bottom1B0_0" departPos="5.10" departSpeed="0.00" departDelay="0.04" arrival="175.20" arrivalLane="bottom0A0_2" arrivalPos="186.40" arrivalSpeed="12.14" duration="118.80" routeLength="880.59" waitingTime="1.60" waitingCount="2" stopTime="0.00" timeLoss="44.49" rerouteNo="1" devices="tripinfo_sim_sn.31 routing_sim_sn.31" vType="passenger" speedFactor="0.88" vaporized=""/>
    <tripinfo id="sim_sn.33" depart="60.70" departLane="bottom1B0_0" departPos="5.10" departSpeed="0.00" departDelay="0.71" arrival="176.80" arrivalLane="bottom0A0_2" arrivalPos="186.40" arrivalSpeed="14.18" duration="116.10" routeLength="880.59" waitingTime="0.70" waitingCount="1" stopTime="0.00" timeLoss="51.95" rerouteNo="1" devices="tripinfo_sim_sn.33 routing_sim_sn.33" vType="passenger" speedFactor="1.02" vaporized=""/>
    <tripinfo id="sim_ns.27" depart="71.40" departLane="bottom0A0_0" departPos="5.10" departSpeed="0.00" departDelay="26.42" arrival="177.90" arrivalLane="bottom1B0_1" arrivalPos="186.40" arrivalSpeed="10.97" duration="106.50" routeLength="849.63" waitingTime="13.20" waitingCount="7" stopTime="0.00" timeLoss="43.98" rerouteNo="1" devices="tripinfo_sim_ns.27 routing_sim_ns.27" vType="passenger" speedFactor="1.02" vaporized=""/>
    <tripinfo id="sim_sn.34" depart="61.90" departLane="bottom1B0_0" departPos="5.10" departSpeed="0.00" departDelay="0.09" arrival="180.40" arrivalLane="bottom0A0_2" arrivalPos="186.40" arrivalSpeed="12.94" duration="118.50" routeLength="880.59" waitingTime="1.70" waitingCount="1" stopTime="0.00" timeLoss="48.69" rerouteNo="1" devices="tripinfo_sim_sn.34 routing_sim_sn.34" vType="passenger" speedFactor="0.94" vaporized=""/>
    <tripinfo id="sim_sn.35" depart="64.10" departLane="bottom1B0_0" departPos="5.10" departSpeed="0.00" departDelay="0.47" arrival="183.10" arrivalLane="bottom0A0_2" arrivalPos="186.40" arrivalSpeed="13.14" duration="119.00" routeLength="880.59" waitingTime="2.10" waitingCount="2" stopTime="0.00" timeLoss="50.33" rerouteNo="1" devices="tripinfo_sim_sn.35 routing_sim_sn.35" vType="passenger" speedFactor="0.96" vaporized=""/>
    <tripinfo id="sim_sn.36" depart="66.40" departLane="bottom1B0_0" departPos="5.10" departSpeed="0.00" departDelay="0.95" arrival="185.00" arrivalLane="bottom0A0_2" arrivalPos="186.40" arrivalSpeed="14.25" duration="118.60" routeLength="880.59" waitingTime="2.90" waitingCount="2" stopTime="0.00" timeLoss="55.14" rerouteNo="1" devices="tripinfo_sim_sn.36 routing_sim_sn.36" vType="passenger" speedFactor="1.03" vaporized=""/>
    <tripinfo id="sim_sn.37" depart="68.50" departLane="bottom1B0_0" departPos="5.10" departSpeed="0.00" departDelay="1.23" arrival="188.10" arrivalLane="bottom0A0_2" arrivalPos="186.40" arrivalSpeed="13.87" duration="119.60" routeLength="880.59" waitingTime="3.00" waitingCount="2" stopTime="0.00" timeLoss="54.49" rerouteNo="1" devices="tripinfo_sim_sn.37 routing_sim_sn.37" vType="passenger" speedFactor="1.01" vaporized=""/>
    <tripinfo id="sim_ns.8" depart="21.10" departLane="bottom0A0_0" departPos="5.10" departSpeed="0.00" departDelay="7.77" arrival="190.40" arrivalLane="bottom1B0_2" arrivalPos="186.40" arrivalSpeed="7.75" duration="169.30" routeLength="849.63" waitingTime="13.90" waitingCount="9" stopTime="0.00" timeLoss="96.90" rerouteNo="1" devices="tripinfo_sim_ns.8 routing_sim_ns.8" vType="passenger" speedFactor="0.88" vaporized=""/>
    <tripinfo id="sim_sn.38" depart="71.40" departLane="bottom1B0_0" departPos="5.10" departSpeed="0.00" departDelay="2.32" arrival="190.60" arrivalLane="bottom0A0_2" arrivalPos="186.40" arrivalSpeed="14.25" duration="119.20" routeLength="880.59" waitingTime="2.40" waitingCount="1" stopTime="0.00" timeLoss="55.85" rerouteNo="1" devices="tripinfo_sim_sn.38 routing_sim_sn.38" vType="passenger" speedFactor="1.03" vaporized=""/>
    <tripinfo id="sim_sn.39" depart="73.90" departLane="bottom1B0_0" departPos="5.10" departSpeed="0.00" departDelay="3.00" arrival="193.70" arrivalLane="bottom0A0_2" arrivalPos="186.40" arrivalSpeed="14.10" duration="119.80" routeLength="880.59" waitingTime="2.10" waitingCount="1" stopTime="0.00" timeLoss="55.39" rerouteNo="1" devices="tripinfo_sim_sn.39 routing_sim_sn.39" vType="passenger" speedFactor="1.02" vaporized=""/>
    <tripinfo id="sim_sn.40" depart="76.40" departLane="bottom1B0_0" departPos="5.10" departSpeed="0.00" departDelay="3.68" arrival="195.30" arrivalLane="bottom0A0_2" arrivalPos="186.40" arrivalSpeed="15.87" duration="118.90" routeLength="880.59" waitingTime="2.30" waitingCount="2" stopTime="0.00" timeLoss="61.79" rerouteNo="1" devices="tripinfo_sim_sn.40 routing_sim_sn.40" vType="passenger" speedFactor="1.15" vaporized=""/>
    <tripinfo id="sim_sn.41" depart="78.80" departLane="bottom1B0_0" departPos="5.10" departSpeed="0.00" departDelay="4.26" arrival="199.50" arrivalLane="bottom0A0_2" arrivalPos="186.40" arrivalSpeed="13.79" duration="120.70" routeLength="880.59" waitingTime="3.00" waitingCount="2" stopTime="0.00" timeLoss="55.18" rerouteNo="1" devices="tripinfo_sim_sn.41 routing_sim_sn.41" vType="passenger" speedFactor="1.00" vaporized=""/>
    <tripinfo id="sim_sn.42" depart="80.50" departLane="bottom1B0_0" departPos="5.10" departSpeed="0.00" departDelay="4.14" arrival="202.20" arrivalLane="bottom0A0_2" arrivalPos="186.40" arrivalSpeed="13.87" duration="121.70" routeLength="880.59" waitingTime="3.50" waitingCount="2" stopTime="0.00" timeLoss="56.62" rerouteNo="1" devices="tripinfo_sim_sn.42 routing_sim_sn.42" vType="passenger" speedFactor="1.01" vaporized=""/>
    <tripinfo id="sim_ns.9" depart="23.80" departLane="bottom0A0_0" departPos="5.10" departSpeed="0.00" departDelay="8.81" arrival="202.90" arrivalLane="bottom1B0_1" arrivalPos="186.40" arrivalSpeed="11.53" duration="179.10" routeLength="849.63" waitingTime="13.10" waitingCount="7" stopTime="0.00" timeLoss="111.12" rerouteNo="1" devices="tripinfo_sim_ns.9 routing_sim_ns.9" vType="passenger" speedFactor="0.94" vaporized=""/>
    <tripinfo id="sim_sn.43" depart="83.90" departLane="bottom1B0_0" departPos="5.10" departSpeed="0.00" departDelay="5.73" arrival="205.00" arrivalLane="bottom0A0_2" arrivalPos="186.40" arrivalSpeed="14.01" duration="121.10" routeLength="880.59" waitingTime="2.40" waitingCount="1" stopTime="0.00" timeLoss="56.56" rerouteNo="1" devices="tripinfo_sim_sn.43 routing_sim_sn.43" vType="passenger" speedFactor="1.02" vaporized=""/>
    <tripinfo id="sim_sn.44" depart="86.50" departLane="bottom1B0_0" departPos="5.10" departSpeed="0.00" departDelay="6.51" arrival="209.10" arrivalLane="bottom0A0_2" arrivalPos="186.40" arrivalSpeed="12.75" duration="122.60" routeLength="880.59" waitingTime="2.50" waitingCount="2" stopTime="0.00" timeLoss="51.42" rerouteNo="1" devices="tripinfo_sim_sn.44 routing_sim_sn.44" vType="passenger" speedFactor="0.92" vaporized=""/>
    <tripinfo id="sim_sn.45" depart="89.10" departLane="bottom1B0_0" departPos="5.10" departSpeed="0.00" departDelay="7.29" arrival="210.70" arrivalLane="bottom0A0_2" arrivalPos="186.40" arrivalSpeed="14.60" duration="121.60" routeLength="880.59" waitingTime="3.00" waitingCount="2" stopTime="0.00" timeLoss="59.53" rerouteNo="1" devices="tripinfo_sim_sn.45 routing_sim_sn.45" vType="passenger" speedFactor="1.06" vaporized=""/>
    <tripinfo id="sim_ns.29" depart="76.70" departLane="bottom0A0_0" departPos="5.10" departSpeed="0.00" departDelay="28.39" arrival="213.10" arrivalLane="bottom1B0_2" arrivalPos="186.40" arrivalSpeed="8.10" duration="136.40" routeLength="849.63" waitingTime="27.20" waitingCount="7" stopTime="0.00" timeLoss="65.73" rerouteNo="1" devices="tripinfo_sim_ns.29 routing_sim_ns.29" vType="passenger" speedFactor="0.90" vaporized=""/>
    <tripinfo id="sim_sn.46" depart="90.90" departLane="bottom1B0_0" departPos="5.10" departSpeed="0.00" departDelay="7.27" arrival="215.10" arrivalLane="bottom0A0_2" arrivalPos="186.40" arrivalSpeed="12.56" duration="124.20" routeLength="880.59" waitingTime="3.30" waitingCount="2" stopTime="0.00" timeLoss="51.92" rerouteNo="1" devices="tripinfo_sim_sn.46 routing_sim_sn.46" vType="passenger" speedFactor="0.91" vaporized=""/>
    <tripinfo id="sim_sn.47" depart="94.20" departLane="bottom1B0_0" departPos="5.10" departSpeed="0.00" departDelay="8.75" arrival="216.60" arrivalLane="bottom0A0_2" arrivalPos="186.40" arrivalSpeed="15.16" duration="122.40" routeLength="880.59" waitingTime="2.30" waitingCount="1" stopTime="0.00" timeLoss="62.67" rerouteNo="1" devices="tripinfo_sim_sn.47 routing_sim_sn.47" vType="passenger" speedFactor="1.10" vaporized=""/>
    <tripinfo id="sim_sn.48" depart="96.60" departLane="bottom1B0_0" departPos="5.10" departSpeed="0.00" departDelay="9.34" arrival="220.00" arrivalLane="bottom0A0_2" arrivalPos="186.40" arrivalSpeed="13.28" duration="123.40" routeLength="880.59" waitingTime="2.20" waitingCount="1" stopTime="0.00" timeLoss="54.86" rerouteNo="1" devices="tripinfo_sim_sn.48 routing_sim_sn.48" vType="passenger" speedFactor="0.96" vaporized=""/>
    <tripinfo id="sim_ns.10" depart="26.40" departLane="bottom0A0_0" departPos="5.10" departSpeed="0.00" departDelay="9.74" arrival="222.90" arrivalLane="bottom1B0_1" arrivalPos="186.40" arrivalSpeed="13.47" duration="196.50" routeLength="849.63" waitingTime="20.70" waitingCount="5" stopTime="0.00" timeLoss="134.05" rerouteNo="1" devices="tripinfo_sim_ns.10 routing_sim_ns.10" vType="passenger" speedFactor="1.02" vaporized=""/>
    <tripinfo id="sim_sn.49" depart="99.20" departLane="bottom1B0_0" departPos="5.10" departSpeed="0.00" departDelay="10.12" arrival="223.20" arrivalLane="bottom0A0_2" arrivalPos="186.40" arrivalSpeed="13.22" duration="124.00" routeLength="880.59" waitingTime="2.10" waitingCount="2" stopTime="0.00" timeLoss="55.11" rerouteNo="1" devices="tripinfo_sim_sn.49 routing_sim_sn.49" vType="passenger" speedFactor="0.95" vaporized=""/>
    <tripinfo id="sim_sn.50" depart="101.50" departLane="bottom1B0_0" departPos="5.10" departSpeed="0.00" departDelay="10.60" arrival="224.80" arrivalLane="bottom0A0_2" arrivalPos="186.40" arrivalSpeed="14.81" duration="123.30" routeLength="880.59" waitingTime="2.90" waitingCount="2" stopTime="0.00" timeLoss="62.14" rerouteNo="1" devices="tripinfo_sim_sn.50 routing_sim_sn.50" vType="passenger" speedFactor="1.07" vaporized=""/>
    <tripinfo id="sim_sn.51" depart="103.50" departLane="bottom1B0_0" departPos="5.10" departSpeed="0.00" departDelay="10.78" arrival="228.00" arrivalLane="bottom0A0_2" arrivalPos="186.40" arrivalSpeed="14.36" duration="124.50" routeLength="880.59" waitingTime="3.00" waitingCount="2" stopTime="0.00" timeLoss="61.04" rerouteNo="1" devices="tripinfo_sim_sn.51 routing_sim_sn.51" vType="passenger" speedFactor="1.03" vaporized=""/>
    <tripinfo id="sim_sn.52" depart="106.50" departLane="bottom1B0_0" departPos="5.10" departSpeed="0.00" departDelay="11.96" arrival="231.60" arrivalLane="bottom0A0_2" arrivalPos="186.40" arrivalSpeed="13.24" duration="125.10" routeLength="880.59" waitingTime="2.30" waitingCount="1" stopTime="0.00" timeLoss="56.82" rerouteNo="1" devices="tripinfo_sim_sn.52 routing_sim_sn.52" vType="passenger" speedFactor="0.96" vaporized=""/>
    <tripinfo id="sim_ns.30" depart="79.30" departLane="bottom0A0_0" departPos="5.10" departSpeed="0.00" departDelay="29.32" arrival="232.80" arrivalLane="bottom1B0_1" arrivalPos="186.40" arrivalSpeed="14.19" duration="153.50" routeLength="849.63" waitingTime="36.40" waitingCount="6" stopTime="0.00" timeLoss="91.41" rerouteNo="1" devices="tripinfo_sim_ns.30 routing_sim_ns.30" vType="passenger" speedFactor="1.02" vaporized=""/>